#     Step Nr.          Time[fs]        Kin.[a.u.]          Temp[K]            Pot.[a.u.]        Cons Qty[a.u.]        UsedTime[s]
         0            0.000000         6.282808023       203.764339467      -176.499493496      -170.214157788         0.000000000
         1            0.500000         6.497239928       210.718805590      -176.600205556      -170.219631738         2.471243143
         2            1.000000         6.806615748       220.752497419      -176.839872931      -170.227800915         0.620652914
         3            1.500000         7.126100637       231.114047090      -177.099080457      -170.231296756         0.611852169
         4            2.000000         7.459090169       241.913580024      -177.328640225      -170.229135183         0.615023851
         5            2.500000         7.723525754       250.489767955      -177.562314128      -170.227774994         0.642674923
         6            3.000000         8.068819311       261.688345609      -177.819253281      -170.232991573         0.627559185
         7            3.500000         8.334419321       270.302298206      -178.027482056      -170.241143914         0.659271955
         8            4.000000         8.450806011       274.076957065      -178.063021941      -170.244200140         0.624428034
         9            4.500000         8.252086548       267.632077668      -177.874571603      -170.239632639         0.631365776
        10            5.000000         7.959936646       258.157057653      -177.530826009      -170.231336779         0.624452114
        11            5.500000         7.662143341       248.499010486      -177.154897699      -170.227424745         0.647669077
        12            6.000000         7.378645079       239.304580894      -176.811314654      -170.228878738         0.662388802
        13            6.500000         7.113694199       230.711680885      -176.488840585      -170.229998186         0.643992186
        14            7.000000         6.936604770       224.968307798      -176.177046217      -170.225381625         0.655256748
        15            7.500000         6.812407106       220.940323026      -175.949590342      -170.217367998         0.642271996
        16            8.000000         6.896053960       223.653161940      -175.932109687      -170.213940367         0.641016245
        17            8.500000         7.202967628       233.607001126      -176.179034253      -170.219395927         0.665348053
        18            9.000000         7.672916135       248.848394289      -176.609126808      -170.229287452         1.069846869
        19            9.500000         8.129884990       263.668830716      -177.068224017      -170.235594506         0.714702845
        20           10.000000         8.556346381       277.499847552      -177.452977579      -170.235520476         0.724932194
        21           10.500000         8.905694723       288.829930202      -177.758762762      -170.234181574         0.612324953
        22           11.000000         9.198793950       298.335738782      -178.001077790      -170.236919016         0.634948969
        23           11.500000         9.395344595       304.710278977      -178.136911490      -170.242800760         0.625736952
        24           12.000000         9.334632687       302.741267408      -178.080718785      -170.244689173         0.614935160
        25           12.500000         9.051957364       293.573527406      -177.808555141      -170.238305417         0.632655859
        26           13.000000         8.730254112       283.140031681      -177.420273108      -170.227826709         0.635075092
        27           13.500000         8.413065447       272.852953247      -177.068970547      -170.222258846         0.637212992
        28           14.000000         8.213214649       266.371382331      -176.837698779      -170.224673086         0.621840000
        29           14.500000         8.108130856       262.963299565      -176.693656388      -170.229076156         0.624708891
