#     Step Nr.          Time[fs]        Kin.[a.u.]          Temp[K]            Pot.[a.u.]        Cons Qty[a.u.]        UsedTime[s]
         0            0.000000        39.179864543        89.637616556      -662.927381961      -623.722098831         0.000000000
         1            0.500000        45.134529324       103.260990821      -664.662697762      -623.802658547        26.162872076
         2            1.000000        53.027677368       121.319322212      -668.890984064      -623.945727990         5.681088924
         3            1.500000        60.976095999       139.504104364      -673.411829974      -624.004999428         5.655077934
         4            2.000000        67.999846210       155.573384733      -677.168219504      -623.949168855         5.618981123
         5            2.500000        74.852899287       171.252135825      -680.815306062      -623.894680357         5.579863787
         6            3.000000        81.665625567       186.838625290      -685.024452532      -623.959037475        12.255156279
         7            3.500000        87.561314680       200.327072130      -688.724387618      -624.105375335         5.458102703
         8            4.000000        90.437001086       206.906208591      -689.614431805      -624.179831067         5.806030035
         9            4.500000        89.531655804       204.834915233      -686.440373256      -624.092733254         5.800419092
        10            5.000000        85.621880853       195.889940258      -680.348096911      -623.924795702         5.430507183
        11            5.500000        81.426403242       186.291320717      -673.745979051      -623.829932247        12.407629013
        12            6.000000        78.290039195       179.115793158      -668.037403928      -623.856343782         5.507925749
        13            6.500000        75.701710696       173.194088214      -662.879938308      -623.896471742         5.552061081
        14            7.000000        73.417984281       167.969266867      -657.716037936      -623.825545622         5.896018982
        15            7.500000        72.480988828       165.825562693      -653.577072665      -623.663696538         5.905343056
        16            8.000000        74.214271704       169.791052305      -652.863003366      -623.570062279         5.751445055
        17            8.500000        80.252396363       183.605370175      -656.985752560      -623.661125345         5.547086954
        18            9.000000        89.217870100       204.117020902      -664.591237671      -623.869086116         5.628143787
        19            9.500000        98.176187994       224.612300141      -672.481580302      -624.011178091         5.559875250
        20           10.000000       105.377261868       241.087270289      -678.370551042      -623.998306918        12.645381927
