 DBCSR| Multiplication driver                                               BLAS
 DBCSR| Multrec recursion limit                                              512
 DBCSR| Multiplication stack size                                           1000
 DBCSR| Maximum elements for images                                    UNLIMITED
 DBCSR| Multiplicative factor virtual images                                   1
 DBCSR| Multiplication size stacks                                             3


  **** **** ******  **  PROGRAM STARTED AT               2019-10-18 10:14:23.985
 ***** ** ***  *** **   PROGRAM STARTED ON                          S4A-Q177HV29
 **    ****   ******    PROGRAM STARTED BY                              sllabres
 ***** **    ** ** **   PROGRAM PROCESS ID                                  4013
  **** **  *******  **  PROGRAM STARTED IN /Users/sllabres/Work/github_repos/CP2
                                           K_tutorials_for_biological_simulation
                                           s/GMX_DAA/section4/monitorisation_qmm
                                           m

 CP2K| version string:                                          CP2K version 5.1
 CP2K| source code revision number:                                    svn:18091
 CP2K| cp2kflags: no_statm_access accelerate                                    
 CP2K| is freely available from                            https://www.cp2k.org/
 CP2K| Program compiled at                          Wed Apr 10 16:53:40 BST 2019
 CP2K| Program compiled on                                          S4A-Q177HV29
 CP2K| Program compiled for                       Darwin-IntelMacintosh-gfortran
 CP2K| Data directory path          /Users/sllabres/Work/BioExcel2/cp2k-5.1/data
 CP2K| Input file name                                    qmmm_md.link_atoms.inp

 GLOBAL| Force Environment number                                              1
 GLOBAL| Basis set file name                                           BASIS_SET
 GLOBAL| Potential file name                                           POTENTIAL
 GLOBAL| MM Potential file name                                     MM_POTENTIAL
 GLOBAL| Coordinate file name                                      system.md.crd
 GLOBAL| Method name                                                        CP2K
 GLOBAL| Project name                                                       QMMM
 GLOBAL| Preferred FFT library                                             FFTW3
 GLOBAL| Preferred diagonalization lib.                                       SL
 GLOBAL| Run type                                                             MD
 GLOBAL| All-to-all communication in single precision                          F
 GLOBAL| FFTs using library dependent lengths                                  F
 GLOBAL| Global print level                                                  LOW
 GLOBAL| Total number of message passing processes                             1
 GLOBAL| Number of threads for this process                                    1
 GLOBAL| This output is from process                                           0
 GLOBAL| CPU model name : UNKNOWN

 MEMORY| system memory details [Kb]
 MEMORY|                        rank 0           min           max       average
 MEMORY| MemTotal                    0             0             0             0
 MEMORY| MemFree                     0             0             0             0
 MEMORY| Buffers                     0             0             0             0
 MEMORY| Cached                      0             0             0             0
 MEMORY| Slab                        0             0             0             0
 MEMORY| SReclaimable                0             0             0             0
 MEMORY| MemLikelyFree               0             0             0             0

 WARNING : FFT library FFTW3 is not available  Trying FFTSG as a default


                      ************* ******** ***********   
                     ************* **********************  
                     ****     **** ****      ***********   
                     ******** ****  *******     ****       
                     *******  ****   *******   ****        
                     ****     ****       ****  ****        
                     ****     **** **********  ****        
                      ****     **** ********    ****       
                     FRONTIERS IN SIMULATION TECHNOLOGY    
                                                           
                        C.J. Mundy, S. Balasubramanian,    
                     Ken Bagchi, J. Hutter, Ari Seitsonen  
                      IFW Kuo, T. Laino, J. VandeVondele   
                                 Version 1.0               

                                                           


 EWALD| Summation is done by:                                               SPME
 EWALD| Alpha parameter [       ANGSTROM^-1]                              0.4000
 EWALD| Real Space Cutoff [          ANGSTROM]                            8.4348
 EWALD| G-space max. Miller index                         80        80        80
 EWALD| Spline interpolation order                                             6

 *** WARNING in topology_amber.F:263 :: BOX information found in CRD file. ***
 *** They will be ignored.Please provide the BOX information directly from ***
 *** the main CP2K input!                                                  ***


 FORCEFIELD| WARNING: A non Critical ForceField parameter is missing! CP2K GOES!
 FORCEFIELD| Non critical parameters are:Urey-Bradley,Torsions,Impropers, Opbends and 1-4
 FORCEFIELD| All missing parameters will not contribute to the potential energy!
 FORCEFIELD| Activate the print key FF_INFO to have a list of missing parameters

 CHARGE_INFO| Total Charge of the Classical System:                     0.940000

 SPLINE_INFO| Generating 33930 splines for NONBONDED14 interactions 
              Due to 260 different atomic kinds
  ...3393  ...6786  ...10179  ...13572  ...16965  ...20358  ...23751  ...27144  ...30537  ...33930
 SPLINE_INFO| Number of unique splines computed:            291
 SPLINE_INFO| Done

 SPLINE_INFO| Generating 33930 splines for NONBONDED interactions 
              Due to 260 different atomic kinds
  ...3393  ...6786  ...10179  ...13572  ...16965  ...20358  ...23751  ...27144  ...30537  ...33930
 SPLINE_INFO| Number of unique splines computed:            291
 SPLINE_INFO| Done


              #####   #####        # #     # ######  ######   #####  
             #     # #     #      #  ##    # #     # #     # #     # 
             #     # #           #   # #   # #     # #     # #     # 
             #     #  #####     #    #  #  # #     # #     # #     # 
             #   # #       #   #     #   # # #     # #     # #     # 
             #    #  #     #  #      #    ## #     # #     # #     # 
              #### #  #####  #       #     # ######  ######   #####  
                                                                     
                              T. Laino and J. Hutter                 
                                                                     
                                   2008 - 2015                       


 SEMIEMPIRICAL|                             Coulomb Integral cutoff/taper values
 SEMIEMPIRICAL| Cutoff [a.u.]                                             18.897
 SEMIEMPIRICAL| Taper  [a.u.]                                             18.897
 SEMIEMPIRICAL| Range  [a.u.]                                              0.000


 SEMIEMPIRICAL|                            Exchange Integral cutoff/taper values
 SEMIEMPIRICAL| Cutoff [a.u.]                                             18.897
 SEMIEMPIRICAL| Taper  [a.u.]                                             18.897
 SEMIEMPIRICAL| Range  [a.u.]                                              0.000



 SCF PARAMETERS         Density guess:                                    ATOMIC
                        --------------------------------------------------------
                        max_scf:                                            2000
                        max_scf_history:                                       0
                        max_diis:                                              4
                        --------------------------------------------------------
                        eps_scf:                                        1.00E-06
                        eps_scf_history:                                0.00E+00
                        eps_diis:                                       1.00E-01
                        eps_eigval:                                     1.00E-05
                        --------------------------------------------------------
                        level_shift [a.u.]:                                 0.00
                        --------------------------------------------------------
                        Outer loop SCF in use 
                        No variables optimised in outer loop
                        eps_scf                                         1.00E-06
                        max_scf                                              100
                        No outer loop optimization
                        step_size                                       5.00E-01

 *******************************************************************************
 *******************************************************************************
 **                                                                           **
 **             #######  ##     ## ##     ## ##     ##                        **
 **            ##     ## ###   ### ###   ### ###   ###                        **
 **            ##     ## #### #### #### #### #### ####                        **
 **            ##     ## ## ### ## ## ### ## ## ### ##                        **
 **            ##  ## ## ##     ## ##     ## ##     ##                        **
 **            ##    ##  ##     ## ##     ## ##     ##  T.Laino and F.Mohamed **
 **             ##### ## ##     ## ##     ## ##     ##  2005 - 2015           **
 **                                                                           **
 **                                                     Calculation Started.. **
 *******************************************************************************
 *******************************************************************************

 MD| Molecular Dynamics Protocol 
 MD| Ensemble Type                                                         NPT_I
 MD| Number of Time Steps                                                     20
 MD| Time Step [fs]                                                         0.50
 MD| Temperature [K]                                                      298.00
 MD| Temperature tolerance [K]                                              0.00
 MD| Pressure [Bar]                                                         1.00
 MD| Barostat time constant [  fs]                                        100.00
 MD| Print MD information every                                        1 step(s)
 MD| File type     Print frequency[steps]                             File names
 MD| Coordinates            4                                     QMMM-pos-1.xyz
 MD| Simulation Cel       100                                        QMMM-1.cell
 MD| Velocities             1                                     QMMM-vel-1.xyz
 MD| Energies               1                                        QMMM-1.ener
 MD| Dump               25000                                     QMMM-1.restart

 ROT| Rotational Analysis Info 
 ROT| Principal axes and moments of inertia in atomic units:
 ROT|                                1                 2                 3
 ROT| EIGENVALUES            0.571889273E+13   0.592983868E+13   0.680257203E+13
 ROT|      X                     0.016742104      -0.999801574      -0.010794189
 ROT|      Y                     0.999847161       0.016686546       0.005216733
 ROT|      Z                    -0.005035580      -0.010879878       0.999928133
 ROT| Numer of Rotovibrational vectors:     6

 Calculation of degrees of freedom
                                                      Number of atoms:     92016
                                 Number of Intramolecular constraints:         0
                                 Number of Intermolecular constraints:         0
                                  Invariants(translation + rotations):         3
                                                   Degrees of freedom:    276045


 Restraints Information
                                  Number of Intramolecular restraints:         0
                                  Number of Intermolecular restraints:         0

 THERMOSTAT| Thermostat Info for PARTICLES
 THERMOSTAT| Type of thermostat            Canonical Sampling/Velocity Rescaling
 THERMOSTAT| CSVR time constant [  fs]                                     10.00
 THERMOSTAT| Initial Kinetic Energy                                     0.000000
 THERMOSTAT| End of Thermostat Info for PARTICLES


 THERMOSTAT| Thermostat Info for BAROSTAT
 THERMOSTAT| Type of thermostat            Canonical Sampling/Velocity Rescaling
 THERMOSTAT| CSVR time constant [  fs]                                     10.00
 THERMOSTAT| Initial Kinetic Energy                                     0.000000
 THERMOSTAT| End of Thermostat Info for BAROSTAT

 ************************** Velocities initialization **************************
 Initial Temperature                                                     89.64 K
 COM velocity:            0.000000060423      0.000000033831     -0.000000033732
 *******************************************************************************


  Translating the system in order to center the QM fragment in the QM box.

 Number of electrons:                                                         96
 Number of occupied orbitals:                                                 48
 Number of molecular orbitals:                                                48

 Number of orbital functions:                                                 73
 Number of independent orbital functions:                                     73

 Extrapolation method: initial_guess


 SCF WAVEFUNCTION OPTIMIZATION

  ----------------------------------- OT ---------------------------------------
  Minimizer      : DIIS                : direct inversion
                                         in the iterative subspace
                                         using   7 DIIS vectors
                                         safer DIIS on
  Preconditioner : FULL_SINGLE_INVERSE : inversion of 
                                         H + eS - 2*(Sc)(c^T*H*c+const)(Sc)^T
  Precond_solver : DEFAULT
  stepsize       :    0.08000000                  energy_gap     :    0.08000000
  eps_taylor     :   0.10000E-15                  max_taylor     :             4
  ----------------------------------- OT ---------------------------------------

  Step     Update method      Time    Convergence         Total energy    Change
  ------------------------------------------------------------------------------
     1 OT DIIS     0.80E-01    0.0     0.18776255      -135.8444684078 -1.36E+02
     2 OT DIIS     0.80E-01    0.0     0.11836081      -141.4351784505 -5.59E+00
     3 OT DIIS     0.80E-01    0.0     0.08518776      -143.4892615726 -2.05E+00
     4 OT DIIS     0.80E-01    0.0     0.06618989      -145.3049029859 -1.82E+00
     5 OT DIIS     0.80E-01    0.0     0.05607253      -146.6911735284 -1.39E+00
     6 OT DIIS     0.80E-01    0.0     0.04853482      -148.0673305588 -1.38E+00
     7 OT DIIS     0.80E-01    0.0     0.04009939      -149.2101604031 -1.14E+00
     8 OT DIIS     0.80E-01    0.0     0.04093440      -149.7162245454 -5.06E-01
     9 OT DIIS     0.80E-01    0.0     0.03238120      -150.5461015790 -8.30E-01
    10 OT DIIS     0.80E-01    0.0     0.02550081      -151.2770233496 -7.31E-01
    11 OT DIIS     0.80E-01    0.0     0.02446684      -151.7037604531 -4.27E-01
    12 OT DIIS     0.80E-01    0.0     0.01930842      -152.0106105629 -3.07E-01
    13 OT DIIS     0.80E-01    0.0     0.01553217      -152.2866837120 -2.76E-01
    14 OT DIIS     0.80E-01    0.0     0.01698797      -152.4048993195 -1.18E-01
    15 OT DIIS     0.80E-01    0.0     0.01574934      -152.4692696510 -6.44E-02
    16 OT DIIS     0.80E-01    0.0     0.01240542      -152.6768129458 -2.08E-01
    17 OT DIIS     0.80E-01    0.0     0.01075531      -152.8370310886 -1.60E-01
    18 OT DIIS     0.80E-01    0.0     0.00910244      -152.9462462150 -1.09E-01
    19 OT DIIS     0.80E-01    0.0     0.00783531      -153.0348318350 -8.86E-02
    20 OT DIIS     0.80E-01    0.0     0.00654577      -153.1098400156 -7.50E-02
    21 OT DIIS     0.80E-01    0.0     0.00563422      -153.1622167503 -5.24E-02
    22 OT DIIS     0.80E-01    0.0     0.00518780      -153.1948142149 -3.26E-02
    23 OT DIIS     0.80E-01    0.0     0.00451036      -153.2262859163 -3.15E-02
    24 OT DIIS     0.80E-01    0.0     0.00450818      -153.2338796137 -7.59E-03
    25 OT DIIS     0.80E-01    0.0     0.00387220      -153.2619974042 -2.81E-02
    26 OT DIIS     0.80E-01    0.0     0.00354300      -153.2809601778 -1.90E-02
    27 OT DIIS     0.80E-01    0.0     0.00321017      -153.2995476837 -1.86E-02
    28 OT DIIS     0.80E-01    0.0     0.00289967      -153.3131248210 -1.36E-02
    29 OT DIIS     0.80E-01    0.0     0.00258187      -153.3270333419 -1.39E-02
    30 OT DIIS     0.80E-01    0.0     0.00237540      -153.3343062221 -7.27E-03
    31 OT DIIS     0.80E-01    0.0     0.00218723      -153.3437526312 -9.45E-03
    32 OT DIIS     0.80E-01    0.0     0.00200798      -153.3487854313 -5.03E-03
    33 OT DIIS     0.80E-01    0.0     0.00182219      -153.3565280443 -7.74E-03
    34 OT DIIS     0.80E-01    0.0     0.00162141      -153.3629637758 -6.44E-03
    35 OT DIIS     0.80E-01    0.0     0.00146481      -153.3682327375 -5.27E-03
    36 OT DIIS     0.80E-01    0.0     0.00136294      -153.3716056298 -3.37E-03
    37 OT DIIS     0.80E-01    0.0     0.00127131      -153.3747703657 -3.16E-03
    38 OT DIIS     0.80E-01    0.0     0.00120546      -153.3771689609 -2.40E-03
    39 OT DIIS     0.80E-01    0.0     0.00109439      -153.3808420496 -3.67E-03
    40 OT DIIS     0.80E-01    0.0     0.00102602      -153.3832389687 -2.40E-03
    41 OT DIIS     0.80E-01    0.0     0.00097805      -153.3851360043 -1.90E-03
    42 OT DIIS     0.80E-01    0.0     0.00093053      -153.3870931951 -1.96E-03
    43 OT DIIS     0.80E-01    0.0     0.00089703      -153.3885245990 -1.43E-03
    44 OT DIIS     0.80E-01    0.0     0.00085964      -153.3906145824 -2.09E-03
    45 OT DIIS     0.80E-01    0.0     0.00082458      -153.3922601300 -1.65E-03
    46 OT DIIS     0.80E-01    0.0     0.00079804      -153.3935363080 -1.28E-03
    47 OT DIIS     0.80E-01    0.0     0.00076070      -153.3956369318 -2.10E-03
    48 OT DIIS     0.80E-01    0.0     0.00073034      -153.3971146440 -1.48E-03
    49 OT DIIS     0.80E-01    0.0     0.00070333      -153.3982798938 -1.17E-03
    50 OT DIIS     0.80E-01    0.0     0.00067917      -153.3996465310 -1.37E-03
    51 OT DIIS     0.80E-01    0.0     0.00066423      -153.4008660612 -1.22E-03
    52 OT DIIS     0.80E-01    0.0     0.00065182      -153.4015311131 -6.65E-04
    53 OT DIIS     0.80E-01    0.0     0.00063433      -153.4029012991 -1.37E-03
    54 OT DIIS     0.80E-01    0.0     0.00061270      -153.4044823893 -1.58E-03
    55 OT DIIS     0.80E-01    0.0     0.00060172      -153.4055852299 -1.10E-03
    56 OT DIIS     0.80E-01    0.0     0.00059474      -153.4063682559 -7.83E-04
    57 OT DIIS     0.80E-01    0.0     0.00058846      -153.4071208221 -7.53E-04
    58 OT DIIS     0.80E-01    0.0     0.00058436      -153.4078607698 -7.40E-04
    59 OT DIIS     0.80E-01    0.0     0.00058112      -153.4084346995 -5.74E-04
    60 OT DIIS     0.80E-01    0.0     0.00057923      -153.4090231672 -5.88E-04
    61 OT DIIS     0.80E-01    0.0     0.00057679      -153.4095207975 -4.98E-04
    62 OT DIIS     0.80E-01    0.0     0.00057486      -153.4102582044 -7.37E-04
    63 OT DIIS     0.80E-01    0.0     0.00057382      -153.4107436024 -4.85E-04
    64 OT DIIS     0.80E-01    0.0     0.00057325      -153.4111199094 -3.76E-04
    65 OT DIIS     0.80E-01    0.0     0.00057289      -153.4114616154 -3.42E-04
    66 OT DIIS     0.80E-01    0.0     0.00057282      -153.4116884561 -2.27E-04
    67 OT SD       0.80E-01    0.0     0.00057282      -153.4118011411 -1.13E-04
    68 OT SD       0.80E-01    0.0     0.00057285      -153.4118931208 -9.20E-05
    69 OT SD       0.80E-01    0.0     0.00057290      -153.4119851126 -9.20E-05
    70 OT SD       0.80E-01    0.0     0.00057296      -153.4120771218 -9.20E-05
    71 OT SD       0.80E-01    0.0     0.00057304      -153.4121691529 -9.20E-05
    72 OT SD       0.80E-01    0.0     0.00057313      -153.4122612095 -9.21E-05
    73 OT SD       0.80E-01    0.0     0.00057323      -153.4123532952 -9.21E-05
    74 OT SD       0.80E-01    0.0     0.00057333      -153.4124454131 -9.21E-05
    75 OT SD       0.80E-01    0.0     0.00057345      -153.4125375660 -9.22E-05
    76 OT SD       0.80E-01    0.0     0.00057357      -153.4126297568 -9.22E-05
    77 OT SD       0.80E-01    0.0     0.00057370      -153.4127219878 -9.22E-05
    78 OT SD       0.80E-01    0.0     0.00057384      -153.4128142614 -9.23E-05
    79 OT SD       0.80E-01    0.0     0.00057398      -153.4129065799 -9.23E-05
    80 OT SD       0.80E-01    0.0     0.00057413      -153.4129989453 -9.24E-05
    81 OT DIIS     0.80E-01    0.0     0.00057429      -153.4130913596 -9.24E-05
    82 OT SD       0.80E-01    0.0     0.00109375      -153.4129191970  1.72E-04
    83 OT SD       0.80E-01    0.0     0.00082132      -153.4131990810 -2.80E-04
    84 OT SD       0.80E-01    0.0     0.00072984      -153.4133754556 -1.76E-04
    85 OT SD       0.80E-01    0.0     0.00068440      -153.4135192920 -1.44E-04
    86 OT SD       0.80E-01    0.0     0.00065815      -153.4136476758 -1.28E-04
    87 OT SD       0.80E-01    0.0     0.00064144      -153.4137673326 -1.20E-04
    88 OT DIIS     0.80E-01    0.0     0.00063011      -153.4138815111 -1.14E-04
    89 OT DIIS     0.80E-01    0.0     0.00059720      -153.4148019984 -9.20E-04
    90 OT DIIS     0.80E-01    0.0     0.00059573      -153.4151507808 -3.49E-04
    91 OT DIIS     0.80E-01    0.0     0.00059533      -153.4152975379 -1.47E-04
    92 OT DIIS     0.80E-01    0.0     0.00059502      -153.4155292935 -2.32E-04
    93 OT SD       0.80E-01    0.0     0.00059494      -153.4159556500 -4.26E-04
    94 OT SD       0.80E-01    0.0     0.00059486      -153.4160548564 -9.92E-05
    95 OT SD       0.80E-01    0.0     0.00059485      -153.4161540454 -9.92E-05
    96 OT SD       0.80E-01    0.0     0.00059487      -153.4162532363 -9.92E-05
    97 OT SD       0.80E-01    0.0     0.00059492      -153.4163524375 -9.92E-05
    98 OT SD       0.80E-01    0.0     0.00059497      -153.4164516540 -9.92E-05
    99 OT SD       0.80E-01    0.0     0.00059503      -153.4165508892 -9.92E-05
   100 OT SD       0.80E-01    0.0     0.00059510      -153.4166501455 -9.93E-05
   101 OT DIIS     0.80E-01    0.0     0.00059517      -153.4167494251 -9.93E-05
   102 OT SD       0.80E-01    0.0     0.00061681      -153.4171225908 -3.73E-04
   103 OT SD       0.80E-01    0.0     0.00060723      -153.4172280350 -1.05E-04
   104 OT SD       0.80E-01    0.0     0.00060411      -153.4173310694 -1.03E-04
   105 OT SD       0.80E-01    0.0     0.00060252      -153.4174332140 -1.02E-04
   106 OT SD       0.80E-01    0.0     0.00060157      -153.4175348872 -1.02E-04
   107 OT SD       0.80E-01    0.0     0.00060096      -153.4176362741 -1.01E-04
   108 OT DIIS     0.80E-01    0.0     0.00060054      -153.4177374724 -1.01E-04
   109 OT DIIS     0.80E-01    0.0     0.00059929      -153.4185246039 -7.87E-04
   110 OT SD       0.80E-01    0.0     0.00060014      -153.4189403913 -4.16E-04
   111 OT SD       0.80E-01    0.0     0.00059985      -153.4190413166 -1.01E-04
   112 OT SD       0.80E-01    0.0     0.00059973      -153.4191421671 -1.01E-04
   113 OT SD       0.80E-01    0.0     0.00059968      -153.4192429858 -1.01E-04
   114 OT SD       0.80E-01    0.0     0.00059966      -153.4193437902 -1.01E-04
   115 OT SD       0.80E-01    0.0     0.00059966      -153.4194445897 -1.01E-04
   116 OT DIIS     0.80E-01    0.0     0.00059967      -153.4195453896 -1.01E-04
   117 OT SD       0.80E-01    0.0     0.00060026      -153.4198423647 -2.97E-04
   118 OT SD       0.80E-01    0.0     0.00060015      -153.4199433562 -1.01E-04
   119 OT SD       0.80E-01    0.0     0.00060009      -153.4200443156 -1.01E-04
   120 OT SD       0.80E-01    0.0     0.00060007      -153.4201452595 -1.01E-04
   121 OT SD       0.80E-01    0.0     0.00060006      -153.4202461960 -1.01E-04
   122 OT SD       0.80E-01    0.0     0.00060005      -153.4203471294 -1.01E-04
   123 OT DIIS     0.80E-01    0.0     0.00060005      -153.4204480620 -1.01E-04
   124 OT SD       0.80E-01    0.0     0.00060280      -153.4214303564 -9.82E-04
   125 OT SD       0.80E-01    0.0     0.00060185      -153.4215321027 -1.02E-04
   126 OT SD       0.80E-01    0.0     0.00060138      -153.4216335888 -1.01E-04
   127 OT SD       0.80E-01    0.0     0.00060109      -153.4217349368 -1.01E-04
   128 OT SD       0.80E-01    0.0     0.00060089      -153.4218361971 -1.01E-04
   129 OT SD       0.80E-01    0.0     0.00060074      -153.4219373964 -1.01E-04
   130 OT DIIS     0.80E-01    0.0     0.00060063      -153.4220385498 -1.01E-04
   131 OT DIIS     0.80E-01    0.0     0.00059922      -153.4235858778 -1.55E-03
   132 OT SD       0.80E-01    0.0     0.00060326      -153.4238912669 -3.05E-04
   133 OT SD       0.80E-01    0.0     0.00060100      -153.4239930190 -1.02E-04
   134 OT SD       0.80E-01    0.0     0.00060003      -153.4240941738 -1.01E-04
   135 OT DIIS     0.80E-01    0.0     0.00059944      -153.4241950420 -1.01E-04
   136 OT DIIS     0.80E-01    0.0     0.00059840      -153.4247250407 -5.30E-04
   137 OT DIIS     0.80E-01    0.0     0.00059737      -153.4253298352 -6.05E-04
   138 OT DIIS     0.80E-01    0.0     0.00059338      -153.4275807109 -2.25E-03
   139 OT SD       0.80E-01    0.0     0.00064027      -153.4327626585 -5.18E-03
   140 OT SD       0.80E-01    0.0     0.00059460      -153.4328717686 -1.09E-04
   141 OT SD       0.80E-01    0.0     0.00058036      -153.4329694179 -9.76E-05
   142 OT SD       0.80E-01    0.0     0.00057315      -153.4330631449 -9.37E-05
   143 OT SD       0.80E-01    0.0     0.00056867      -153.4331548172 -9.17E-05
   144 OT DIIS     0.80E-01    0.0     0.00056553      -153.4332451867 -9.04E-05
   145 OT DIIS     0.80E-01    0.0     0.00127437      -153.4393465884 -6.10E-03
   146 OT SD       0.80E-01    0.0     0.00091400      -153.4421721571 -2.83E-03
   147 OT DIIS     0.80E-01    0.0     0.00067267      -153.4423674298 -1.95E-04
   148 OT DIIS     0.80E-01    0.0     0.00105324      -153.4435244763 -1.16E-03
   149 OT SD       0.80E-01    0.0     0.00139527      -153.4415237392  2.00E-03
   150 OT SD       0.80E-01    0.0     0.00094533      -153.4419624699 -4.39E-04
   151 OT DIIS     0.80E-01    0.0     0.00075406      -153.4421843501 -2.22E-04
   152 OT SD       0.80E-01    0.0     0.00059798      -153.4467163269 -4.53E-03
   153 OT DIIS     0.80E-01    0.0     0.00048310      -153.4468032193 -8.69E-05
   154 OT SD       0.80E-01    0.0     0.00041367      -153.4472836849 -4.80E-04
   155 OT DIIS     0.80E-01    0.0     0.00039921      -153.4473300660 -4.64E-05
   156 OT DIIS     0.80E-01    0.0     0.00038680      -153.4479497959 -6.20E-04
   157 OT SD       0.80E-01    0.0     0.00060058      -153.4479081299  4.17E-05
   158 OT DIIS     0.80E-01    0.0     0.00046989      -153.4479948417 -8.67E-05
   159 OT DIIS     0.80E-01    0.0     0.00038136      -153.4496267321 -1.63E-03
   160 OT DIIS     0.80E-01    0.0     0.00032337      -153.4500661885 -4.39E-04
   161 OT DIIS     0.80E-01    0.0     0.00031614      -153.4503602586 -2.94E-04
   162 OT DIIS     0.80E-01    0.0     0.00030217      -153.4507848514 -4.25E-04
   163 OT SD       0.80E-01    0.0     0.00035665      -153.4509998084 -2.15E-04
   164 OT DIIS     0.80E-01    0.0     0.00031419      -153.4510322756 -3.25E-05
   165 OT DIIS     0.80E-01    0.0     0.00030002      -153.4516190873 -5.87E-04
   166 OT DIIS     0.80E-01    0.0     0.00026800      -153.4519052411 -2.86E-04
   167 OT DIIS     0.80E-01    0.0     0.00025259      -153.4520826621 -1.77E-04
   168 OT DIIS     0.80E-01    0.0     0.00024085      -153.4524051496 -3.22E-04
   169 OT DIIS     0.80E-01    0.0     0.00023405      -153.4525638561 -1.59E-04
   170 OT DIIS     0.80E-01    0.0     0.00022467      -153.4527057290 -1.42E-04
   171 OT DIIS     0.80E-01    0.0     0.00021122      -153.4530803185 -3.75E-04
   172 OT DIIS     0.80E-01    0.0     0.00020911      -153.4531746529 -9.43E-05
   173 OT DIIS     0.80E-01    0.0     0.00020375      -153.4534903842 -3.16E-04
   174 OT DIIS     0.80E-01    0.0     0.00018951      -153.4537690525 -2.79E-04
   175 OT DIIS     0.80E-01    0.0     0.00017944      -153.4538898885 -1.21E-04
   176 OT DIIS     0.80E-01    0.0     0.00017366      -153.4540780707 -1.88E-04
   177 OT SD       0.80E-01    0.0     0.00017683      -153.4542963698 -2.18E-04
   178 OT DIIS     0.80E-01    0.0     0.00016428      -153.4543046880 -8.32E-06
   179 OT DIIS     0.80E-01    0.0     0.00015605      -153.4544069977 -1.02E-04
   180 OT DIIS     0.80E-01    0.0     0.00015408      -153.4544753918 -6.84E-05
   181 OT DIIS     0.80E-01    0.0     0.00014794      -153.4545488408 -7.34E-05
   182 OT DIIS     0.80E-01    0.0     0.00014329      -153.4546390338 -9.02E-05
   183 OT DIIS     0.80E-01    0.0     0.00013972      -153.4546729668 -3.39E-05
   184 OT DIIS     0.80E-01    0.0     0.00013542      -153.4547305443 -5.76E-05
   185 OT DIIS     0.80E-01    0.0     0.00013006      -153.4548428469 -1.12E-04
   186 OT DIIS     0.80E-01    0.0     0.00012720      -153.4549415356 -9.87E-05
   187 OT DIIS     0.80E-01    0.0     0.00012427      -153.4550234494 -8.19E-05
   188 OT DIIS     0.80E-01    0.0     0.00012177      -153.4551151408 -9.17E-05
   189 OT DIIS     0.80E-01    0.0     0.00011655      -153.4552290079 -1.14E-04
   190 OT DIIS     0.80E-01    0.0     0.00011350      -153.4552811848 -5.22E-05
   191 OT DIIS     0.80E-01    0.0     0.00010933      -153.4553487350 -6.76E-05
   192 OT DIIS     0.80E-01    0.0     0.00010597      -153.4554199685 -7.12E-05
   193 OT DIIS     0.80E-01    0.0     0.00010427      -153.4554504505 -3.05E-05
   194 OT DIIS     0.80E-01    0.0     0.00010244      -153.4555217894 -7.13E-05
   195 OT DIIS     0.80E-01    0.0     0.00010002      -153.4555846640 -6.29E-05
   196 OT DIIS     0.80E-01    0.0     0.00009803      -153.4556398391 -5.52E-05
   197 OT DIIS     0.80E-01    0.0     0.00009441      -153.4557243426 -8.45E-05
   198 OT DIIS     0.80E-01    0.0     0.00009242      -153.4557658897 -4.15E-05
   199 OT DIIS     0.80E-01    0.0     0.00008953      -153.4558323640 -6.65E-05
   200 OT DIIS     0.80E-01    0.0     0.00008686      -153.4558862027 -5.38E-05
   201 OT DIIS     0.80E-01    0.0     0.00008460      -153.4559222565 -3.61E-05
   202 OT DIIS     0.80E-01    0.0     0.00008306      -153.4559619388 -3.97E-05
   203 OT DIIS     0.80E-01    0.0     0.00008245      -153.4560030665 -4.11E-05
   204 OT DIIS     0.80E-01    0.0     0.00008002      -153.4560255232 -2.25E-05
   205 OT DIIS     0.80E-01    0.0     0.00007839      -153.4560726823 -4.72E-05
   206 OT DIIS     0.80E-01    0.0     0.00007504      -153.4561304250 -5.77E-05
   207 OT DIIS     0.80E-01    0.0     0.00007377      -153.4561557889 -2.54E-05
   208 OT DIIS     0.80E-01    0.0     0.00007300      -153.4561887076 -3.29E-05
   209 OT DIIS     0.80E-01    0.0     0.00007110      -153.4562257348 -3.70E-05
   210 OT DIIS     0.80E-01    0.0     0.00006978      -153.4562502518 -2.45E-05
   211 OT DIIS     0.80E-01    0.0     0.00006880      -153.4562807702 -3.05E-05
   212 OT DIIS     0.80E-01    0.0     0.00006718      -153.4563124475 -3.17E-05
   213 OT DIIS     0.80E-01    0.0     0.00006611      -153.4563388956 -2.64E-05
   214 OT DIIS     0.80E-01    0.0     0.00006452      -153.4563847655 -4.59E-05
   215 OT DIIS     0.80E-01    0.0     0.00006375      -153.4564081954 -2.34E-05
   216 OT DIIS     0.80E-01    0.0     0.00006242      -153.4564341561 -2.60E-05
   217 OT DIIS     0.80E-01    0.0     0.00006169      -153.4564578661 -2.37E-05
   218 OT DIIS     0.80E-01    0.0     0.00006072      -153.4564784572 -2.06E-05
   219 OT DIIS     0.80E-01    0.0     0.00005972      -153.4565044934 -2.60E-05
   220 OT DIIS     0.80E-01    0.0     0.00005906      -153.4565270675 -2.26E-05
   221 OT DIIS     0.80E-01    0.0     0.00005856      -153.4565536335 -2.66E-05
   222 OT DIIS     0.80E-01    0.0     0.00005798      -153.4565669324 -1.33E-05
   223 OT DIIS     0.80E-01    0.0     0.00005733      -153.4565907425 -2.38E-05
   224 OT DIIS     0.80E-01    0.0     0.00005632      -153.4566188057 -2.81E-05
   225 OT DIIS     0.80E-01    0.0     0.00005535      -153.4566383407 -1.95E-05
   226 OT DIIS     0.80E-01    0.0     0.00005472      -153.4566520713 -1.37E-05
   227 OT DIIS     0.80E-01    0.0     0.00005407      -153.4566651892 -1.31E-05
   228 OT DIIS     0.80E-01    0.0     0.00005338      -153.4566825417 -1.74E-05
   229 OT DIIS     0.80E-01    0.0     0.00005283      -153.4567129378 -3.04E-05
   230 OT DIIS     0.80E-01    0.0     0.00005259      -153.4567274533 -1.45E-05
   231 OT DIIS     0.80E-01    0.0     0.00005196      -153.4567398541 -1.24E-05
   232 OT DIIS     0.80E-01    0.0     0.00005122      -153.4567814426 -4.16E-05
   233 OT DIIS     0.80E-01    0.0     0.00004985      -153.4568236915 -4.22E-05
   234 OT DIIS     0.80E-01    0.0     0.00004880      -153.4568530707 -2.94E-05
   235 OT DIIS     0.80E-01    0.0     0.00004796      -153.4569021606 -4.91E-05
   236 OT DIIS     0.80E-01    0.0     0.00004762      -153.4569448004 -4.26E-05
   237 OT DIIS     0.80E-01    0.0     0.00004652      -153.4569639532 -1.92E-05
   238 OT DIIS     0.80E-01    0.0     0.00004467      -153.4569763928 -1.24E-05
   239 OT DIIS     0.80E-01    0.0     0.00004403      -153.4569966241 -2.02E-05
   240 OT DIIS     0.80E-01    0.0     0.00004298      -153.4570185674 -2.19E-05
   241 OT DIIS     0.80E-01    0.0     0.00004262      -153.4570390720 -2.05E-05
   242 OT DIIS     0.80E-01    0.0     0.00004171      -153.4570564233 -1.74E-05
   243 OT DIIS     0.80E-01    0.0     0.00004100      -153.4570647294 -8.31E-06
   244 OT DIIS     0.80E-01    0.0     0.00004037      -153.4570766881 -1.20E-05
   245 OT SD       0.80E-01    0.0     0.00004113      -153.4571034493 -2.68E-05
   246 OT DIIS     0.80E-01    0.0     0.00003990      -153.4571039114 -4.62E-07
   247 OT DIIS     0.80E-01    0.0     0.00003901      -153.4571124140 -8.50E-06
   248 OT DIIS     0.80E-01    0.0     0.00003860      -153.4571217658 -9.35E-06
   249 OT DIIS     0.80E-01    0.0     0.00003801      -153.4571329086 -1.11E-05
   250 OT DIIS     0.80E-01    0.0     0.00003749      -153.4571427026 -9.79E-06
   251 OT DIIS     0.80E-01    0.0     0.00003740      -153.4571582615 -1.56E-05
   252 OT DIIS     0.80E-01    0.0     0.00003689      -153.4571612020 -2.94E-06
   253 OT DIIS     0.80E-01    0.0     0.00003665      -153.4571672095 -6.01E-06
   254 OT DIIS     0.80E-01    0.0     0.00003616      -153.4571787503 -1.15E-05
   255 OT DIIS     0.80E-01    0.0     0.00003588      -153.4571866057 -7.86E-06
   256 OT DIIS     0.80E-01    0.0     0.00003547      -153.4571955147 -8.91E-06
   257 OT DIIS     0.80E-01    0.0     0.00003512      -153.4572055527 -1.00E-05
   258 OT DIIS     0.80E-01    0.0     0.00003491      -153.4572172399 -1.17E-05
   259 OT DIIS     0.80E-01    0.0     0.00003465      -153.4572225628 -5.32E-06
   260 OT DIIS     0.80E-01    0.0     0.00003438      -153.4572338423 -1.13E-05
   261 OT DIIS     0.80E-01    0.0     0.00003404      -153.4572457562 -1.19E-05
   262 OT DIIS     0.80E-01    0.0     0.00003363      -153.4572599835 -1.42E-05
   263 OT DIIS     0.80E-01    0.0     0.00003338      -153.4572730857 -1.31E-05
   264 OT DIIS     0.80E-01    0.0     0.00003304      -153.4572821527 -9.07E-06
   265 OT DIIS     0.80E-01    0.0     0.00003285      -153.4572896276 -7.47E-06
   266 OT DIIS     0.80E-01    0.0     0.00003266      -153.4572983942 -8.77E-06
   267 OT DIIS     0.80E-01    0.0     0.00003245      -153.4573070093 -8.62E-06
   268 OT DIIS     0.80E-01    0.0     0.00003226      -153.4573127007 -5.69E-06
   269 OT DIIS     0.80E-01    0.0     0.00003207      -153.4573233689 -1.07E-05
   270 OT DIIS     0.80E-01    0.0     0.00003167      -153.4573352206 -1.19E-05
   271 OT DIIS     0.80E-01    0.0     0.00003136      -153.4573443364 -9.12E-06
   272 OT DIIS     0.80E-01    0.0     0.00003114      -153.4573600052 -1.57E-05
   273 OT DIIS     0.80E-01    0.0     0.00003084      -153.4573637232 -3.72E-06
   274 OT DIIS     0.80E-01    0.0     0.00003069      -153.4573688170 -5.09E-06
   275 OT DIIS     0.80E-01    0.0     0.00003055      -153.4573739389 -5.12E-06
   276 OT DIIS     0.80E-01    0.0     0.00003042      -153.4573785898 -4.65E-06
   277 OT DIIS     0.80E-01    0.0     0.00003032      -153.4573840688 -5.48E-06
   278 OT DIIS     0.80E-01    0.0     0.00003010      -153.4573901202 -6.05E-06
   279 OT DIIS     0.80E-01    0.0     0.00002999      -153.4573977858 -7.67E-06
   280 OT DIIS     0.80E-01    0.0     0.00002980      -153.4574017936 -4.01E-06
   281 OT DIIS     0.80E-01    0.0     0.00002968      -153.4574062521 -4.46E-06
   282 OT DIIS     0.80E-01    0.0     0.00002944      -153.4574142057 -7.95E-06
   283 OT DIIS     0.80E-01    0.0     0.00002920      -153.4574213153 -7.11E-06
   284 OT DIIS     0.80E-01    0.0     0.00002906      -153.4574249357 -3.62E-06
   285 OT DIIS     0.80E-01    0.0     0.00002893      -153.4574297449 -4.81E-06
   286 OT DIIS     0.80E-01    0.0     0.00002883      -153.4574342943 -4.55E-06
   287 OT DIIS     0.80E-01    0.0     0.00002879      -153.4574364400 -2.15E-06
   288 OT DIIS     0.80E-01    0.0     0.00002868      -153.4574398027 -3.36E-06
   289 OT DIIS     0.80E-01    0.0     0.00002850      -153.4574437944 -3.99E-06
   290 OT DIIS     0.80E-01    0.0     0.00002833      -153.4574511336 -7.34E-06
   291 OT DIIS     0.80E-01    0.0     0.00002820      -153.4574539715 -2.84E-06
   292 OT DIIS     0.80E-01    0.0     0.00002815      -153.4574570224 -3.05E-06
   293 OT DIIS     0.80E-01    0.0     0.00002808      -153.4574597101 -2.69E-06
   294 OT DIIS     0.80E-01    0.0     0.00002800      -153.4574630329 -3.32E-06
   295 OT DIIS     0.80E-01    0.0     0.00002786      -153.4574680425 -5.01E-06
   296 OT DIIS     0.80E-01    0.0     0.00002769      -153.4574752769 -7.23E-06
   297 OT SD       0.80E-01    0.0     0.00002758      -153.4574844771 -9.20E-06
   298 OT DIIS     0.80E-01    0.0     0.00002749      -153.4574846897 -2.13E-07
   299 OT DIIS     0.80E-01    0.0     0.00002742      -153.4574899320 -5.24E-06
   300 OT DIIS     0.80E-01    0.0     0.00002734      -153.4574956879 -5.76E-06
   301 OT DIIS     0.80E-01    0.0     0.00002720      -153.4575018520 -6.16E-06
   302 OT DIIS     0.80E-01    0.0     0.00002708      -153.4575100715 -8.22E-06
   303 OT DIIS     0.80E-01    0.0     0.00002699      -153.4575220389 -1.20E-05
   304 OT DIIS     0.80E-01    0.0     0.00002686      -153.4575283137 -6.27E-06
   305 OT DIIS     0.80E-01    0.0     0.00002684      -153.4575328172 -4.50E-06
   306 OT DIIS     0.80E-01    0.0     0.00002650      -153.4575405343 -7.72E-06
   307 OT DIIS     0.80E-01    0.0     0.00002652      -153.4575463957 -5.86E-06
   308 OT DIIS     0.80E-01    0.0     0.00002645      -153.4575492837 -2.89E-06
   309 OT DIIS     0.80E-01    0.0     0.00002652      -153.4575603552 -1.11E-05
   310 OT DIIS     0.80E-01    0.0     0.00002621      -153.4575638420 -3.49E-06
   311 OT DIIS     0.80E-01    0.0     0.00002599      -153.4575691735 -5.33E-06
   312 OT DIIS     0.80E-01    0.0     0.00002594      -153.4575769555 -7.78E-06
   313 OT DIIS     0.80E-01    0.0     0.00002570      -153.4575889340 -1.20E-05
   314 OT DIIS     0.80E-01    0.0     0.00002564      -153.4575973195 -8.39E-06
   315 OT DIIS     0.80E-01    0.0     0.00002556      -153.4576026955 -5.38E-06
   316 OT DIIS     0.80E-01    0.0     0.00002567      -153.4576145736 -1.19E-05
   317 OT DIIS     0.80E-01    0.0     0.00002742      -153.4576164669 -1.89E-06
   318 OT DIIS     0.80E-01    0.0     0.00002727      -153.4576210244 -4.56E-06
   319 OT DIIS     0.80E-01    0.0     0.00002509      -153.4576265429 -5.52E-06
   320 OT DIIS     0.80E-01    0.0     0.00002523      -153.4576273903 -8.47E-07
   321 OT DIIS     0.80E-01    0.0     0.00002488      -153.4576313506 -3.96E-06
   322 OT DIIS     0.80E-01    0.0     0.00002479      -153.4576326992 -1.35E-06
   323 OT DIIS     0.80E-01    0.0     0.00002480      -153.4576451333 -1.24E-05
   324 OT DIIS     0.80E-01    0.0     0.00002455      -153.4576482560 -3.12E-06
   325 OT DIIS     0.80E-01    0.0     0.00002451      -153.4576556292 -7.37E-06
   326 OT DIIS     0.80E-01    0.0     0.00002434      -153.4576618659 -6.24E-06
   327 OT DIIS     0.80E-01    0.0     0.00002441      -153.4576695487 -7.68E-06
   328 OT DIIS     0.80E-01    0.0     0.00002417      -153.4576801972 -1.06E-05
   329 OT DIIS     0.80E-01    0.0     0.00002394      -153.4576879107 -7.71E-06
   330 OT DIIS     0.80E-01    0.0     0.00002382      -153.4576942485 -6.34E-06
   331 OT DIIS     0.80E-01    0.0     0.00002382      -153.4576979100 -3.66E-06
   332 OT SD       0.80E-01    0.0     0.00002370      -153.4577058979 -7.99E-06
   333 OT DIIS     0.80E-01    0.0     0.00002356      -153.4577060546 -1.57E-07
   334 OT DIIS     0.80E-01    0.0     0.00002354      -153.4577123011 -6.25E-06
   335 OT DIIS     0.80E-01    0.0     0.00002327      -153.4577192312 -6.93E-06
   336 OT DIIS     0.80E-01    0.0     0.00002319      -153.4577227190 -3.49E-06
   337 OT DIIS     0.80E-01    0.0     0.00002302      -153.4577262511 -3.53E-06
   338 OT DIIS     0.80E-01    0.0     0.00002286      -153.4577296414 -3.39E-06
   339 OT DIIS     0.80E-01    0.0     0.00002291      -153.4577339576 -4.32E-06
   340 OT DIIS     0.80E-01    0.0     0.00002276      -153.4577354957 -1.54E-06
   341 OT DIIS     0.80E-01    0.0     0.00002268      -153.4577385012 -3.01E-06
   342 OT DIIS     0.80E-01    0.0     0.00002260      -153.4577434827 -4.98E-06
   343 OT DIIS     0.80E-01    0.0     0.00002242      -153.4577530558 -9.57E-06
   344 OT DIIS     0.80E-01    0.0     0.00002227      -153.4577605730 -7.52E-06
   345 OT DIIS     0.80E-01    0.0     0.00002222      -153.4577705885 -1.00E-05
   346 OT DIIS     0.80E-01    0.0     0.00002205      -153.4577762784 -5.69E-06
   347 OT DIIS     0.80E-01    0.0     0.00002198      -153.4577827459 -6.47E-06
   348 OT DIIS     0.80E-01    0.0     0.00002220      -153.4577936141 -1.09E-05
   349 OT DIIS     0.80E-01    0.0     0.00002214      -153.4577990855 -5.47E-06
   350 OT DIIS     0.80E-01    0.0     0.00002184      -153.4578050888 -6.00E-06
   351 OT DIIS     0.80E-01    0.0     0.00002167      -153.4578085447 -3.46E-06
   352 OT DIIS     0.80E-01    0.0     0.00002156      -153.4578114962 -2.95E-06
   353 OT DIIS     0.80E-01    0.0     0.00002126      -153.4578224726 -1.10E-05
   354 OT DIIS     0.80E-01    0.0     0.00002116      -153.4578278956 -5.42E-06
   355 OT DIIS     0.80E-01    0.0     0.00002095      -153.4578359022 -8.01E-06
   356 OT DIIS     0.80E-01    0.0     0.00002107      -153.4578392026 -3.30E-06
   357 OT SD       0.80E-01    0.0     0.00002388      -153.4578478191 -8.62E-06
   358 OT SD       0.80E-01    0.0     0.00002142      -153.4578479615 -1.42E-07
   359 OT DIIS     0.80E-01    0.0     0.00002091      -153.4578480857 -1.24E-07
   360 OT DIIS     0.80E-01    0.0     0.00002067      -153.4578509596 -2.87E-06
   361 OT DIIS     0.80E-01    0.0     0.00002044      -153.4578545638 -3.60E-06
   362 OT DIIS     0.80E-01    0.0     0.00002031      -153.4578576580 -3.09E-06
   363 OT DIIS     0.80E-01    0.0     0.00002024      -153.4578589335 -1.28E-06
   364 OT DIIS     0.80E-01    0.0     0.00002013      -153.4578614395 -2.51E-06
   365 OT DIIS     0.80E-01    0.0     0.00001999      -153.4578633185 -1.88E-06
   366 OT DIIS     0.80E-01    0.0     0.00001992      -153.4578650070 -1.69E-06
   367 OT DIIS     0.80E-01    0.0     0.00001983      -153.4578691972 -4.19E-06
   368 OT DIIS     0.80E-01    0.0     0.00001974      -153.4578707043 -1.51E-06
   369 OT DIIS     0.80E-01    0.0     0.00001980      -153.4578775161 -6.81E-06
   370 OT DIIS     0.80E-01    0.0     0.00001953      -153.4578797673 -2.25E-06
   371 OT DIIS     0.80E-01    0.0     0.00001949      -153.4578833126 -3.55E-06
   372 OT DIIS     0.80E-01    0.0     0.00001941      -153.4578862805 -2.97E-06
   373 OT DIIS     0.80E-01    0.0     0.00001933      -153.4578903517 -4.07E-06
   374 OT DIIS     0.80E-01    0.0     0.00001923      -153.4578941499 -3.80E-06
   375 OT DIIS     0.80E-01    0.0     0.00001916      -153.4578969891 -2.84E-06
   376 OT DIIS     0.80E-01    0.0     0.00001905      -153.4579019017 -4.91E-06
   377 OT DIIS     0.80E-01    0.0     0.00001895      -153.4579054346 -3.53E-06
   378 OT DIIS     0.80E-01    0.0     0.00001891      -153.4579094143 -3.98E-06
   379 OT DIIS     0.80E-01    0.0     0.00001884      -153.4579111232 -1.71E-06
   380 OT DIIS     0.80E-01    0.0     0.00001878      -153.4579137067 -2.58E-06
   381 OT DIIS     0.80E-01    0.0     0.00001876      -153.4579169214 -3.21E-06
   382 OT DIIS     0.80E-01    0.0     0.00001870      -153.4579182843 -1.36E-06
   383 OT DIIS     0.80E-01    0.0     0.00001866      -153.4579205145 -2.23E-06
   384 OT DIIS     0.80E-01    0.0     0.00001864      -153.4579253518 -4.84E-06
   385 OT DIIS     0.80E-01    0.0     0.00001854      -153.4579282630 -2.91E-06
   386 OT DIIS     0.80E-01    0.0     0.00001849      -153.4579311507 -2.89E-06
   387 OT DIIS     0.80E-01    0.0     0.00001843      -153.4579342723 -3.12E-06
   388 OT DIIS     0.80E-01    0.0     0.00001842      -153.4579398533 -5.58E-06
   389 OT DIIS     0.80E-01    0.0     0.00001868      -153.4579404584 -6.05E-07
   390 OT DIIS     0.80E-01    0.0     0.00001832      -153.4579440329 -3.57E-06
   391 OT DIIS     0.80E-01    0.0     0.00001814      -153.4579492418 -5.21E-06
   392 OT DIIS     0.80E-01    0.0     0.00001851      -153.4579562747 -7.03E-06
   393 OT DIIS     0.80E-01    0.0     0.00001793      -153.4579592966 -3.02E-06
   394 OT DIIS     0.80E-01    0.0     0.00001784      -153.4579616372 -2.34E-06
   395 OT DIIS     0.80E-01    0.0     0.00001788      -153.4579663293 -4.69E-06
   396 OT DIIS     0.80E-01    0.0     0.00001853      -153.4579677672 -1.44E-06
   397 OT DIIS     0.80E-01    0.0     0.00001781      -153.4579720298 -4.26E-06
   398 OT DIIS     0.80E-01    0.0     0.00001750      -153.4579746981 -2.67E-06
   399 OT DIIS     0.80E-01    0.0     0.00001744      -153.4579774396 -2.74E-06
   400 OT DIIS     0.80E-01    0.0     0.00001738      -153.4579803966 -2.96E-06
   401 OT DIIS     0.80E-01    0.0     0.00001729      -153.4579838162 -3.42E-06
   402 OT DIIS     0.80E-01    0.0     0.00001725      -153.4579872398 -3.42E-06
   403 OT DIIS     0.80E-01    0.0     0.00001717      -153.4579892798 -2.04E-06
   404 OT DIIS     0.80E-01    0.0     0.00001709      -153.4579916286 -2.35E-06
   405 OT DIIS     0.80E-01    0.0     0.00001703      -153.4579961548 -4.53E-06
   406 OT DIIS     0.80E-01    0.0     0.00001693      -153.4579997285 -3.57E-06
   407 OT DIIS     0.80E-01    0.0     0.00001674      -153.4580032244 -3.50E-06
   408 OT DIIS     0.80E-01    0.0     0.00001665      -153.4580059714 -2.75E-06
   409 OT DIIS     0.80E-01    0.0     0.00001653      -153.4580097461 -3.77E-06
   410 OT DIIS     0.80E-01    0.0     0.00001649      -153.4580108187 -1.07E-06
   411 OT DIIS     0.80E-01    0.0     0.00001644      -153.4580131154 -2.30E-06
   412 OT DIIS     0.80E-01    0.0     0.00001629      -153.4580152573 -2.14E-06
   413 OT DIIS     0.80E-01    0.0     0.00001625      -153.4580183822 -3.12E-06
   414 OT DIIS     0.80E-01    0.0     0.00001611      -153.4580204232 -2.04E-06
   415 OT DIIS     0.80E-01    0.0     0.00001603      -153.4580227551 -2.33E-06
   416 OT DIIS     0.80E-01    0.0     0.00001597      -153.4580259263 -3.17E-06
   417 OT DIIS     0.80E-01    0.0     0.00001590      -153.4580270907 -1.16E-06
   418 OT DIIS     0.80E-01    0.0     0.00001586      -153.4580278553 -7.65E-07
   419 OT DIIS     0.80E-01    0.0     0.00001574      -153.4580308950 -3.04E-06
   420 OT DIIS     0.80E-01    0.0     0.00001566      -153.4580342780 -3.38E-06
   421 OT DIIS     0.80E-01    0.0     0.00001557      -153.4580348439 -5.66E-07
   422 OT DIIS     0.80E-01    0.0     0.00001547      -153.4580366106 -1.77E-06
   423 OT DIIS     0.80E-01    0.0     0.00001535      -153.4580388817 -2.27E-06
   424 OT DIIS     0.80E-01    0.0     0.00001531      -153.4580389681 -8.64E-08
   425 OT DIIS     0.80E-01    0.0     0.00001523      -153.4580403858 -1.42E-06
   426 OT DIIS     0.80E-01    0.0     0.00001515      -153.4580411703 -7.85E-07
   427 OT DIIS     0.80E-01    0.0     0.00001510      -153.4580426101 -1.44E-06
   428 OT DIIS     0.80E-01    0.0     0.00001504      -153.4580437076 -1.10E-06
   429 OT DIIS     0.80E-01    0.0     0.00001497      -153.4580448756 -1.17E-06
   430 OT DIIS     0.80E-01    0.0     0.00001489      -153.4580461326 -1.26E-06
   431 OT DIIS     0.80E-01    0.0     0.00001484      -153.4580469025 -7.70E-07
   432 OT DIIS     0.80E-01    0.0     0.00001479      -153.4580482113 -1.31E-06
   433 OT DIIS     0.80E-01    0.0     0.00001476      -153.4580486651 -4.54E-07
   434 OT DIIS     0.80E-01    0.0     0.00001472      -153.4580496408 -9.76E-07
   435 OT DIIS     0.80E-01    0.0     0.00001469      -153.4580507418 -1.10E-06
   436 OT DIIS     0.80E-01    0.0     0.00001464      -153.4580523924 -1.65E-06
   437 OT DIIS     0.80E-01    0.0     0.00001457      -153.4580556547 -3.26E-06
   438 OT DIIS     0.80E-01    0.0     0.00001450      -153.4580589384 -3.28E-06
   439 OT DIIS     0.80E-01    0.0     0.00001447      -153.4580633179 -4.38E-06
   440 OT DIIS     0.80E-01    0.0     0.00001441      -153.4580640082 -6.90E-07
   441 OT DIIS     0.80E-01    0.0     0.00001455      -153.4580677898 -3.78E-06
   442 OT DIIS     0.80E-01    0.0     0.00001433      -153.4580686022 -8.12E-07
   443 OT DIIS     0.80E-01    0.0     0.00001464      -153.4580748702 -6.27E-06
   444 OT DIIS     0.80E-01    0.0     0.00001417      -153.4580770360 -2.17E-06
   445 OT DIIS     0.80E-01    0.0     0.00001408      -153.4580793624 -2.33E-06
   446 OT DIIS     0.80E-01    0.0     0.00001397      -153.4580822873 -2.92E-06
   447 OT DIIS     0.80E-01    0.0     0.00001466      -153.4580884964 -6.21E-06
   448 OT SD       0.80E-01    0.0     0.00001391      -153.4580932541 -4.76E-06
   449 OT DIIS     0.80E-01    0.0     0.00001375      -153.4580933077 -5.36E-08
   450 OT DIIS     0.80E-01    0.0     0.00001398      -153.4580959445 -2.64E-06
   451 OT DIIS     0.80E-01    0.0     0.00001367      -153.4580978968 -1.95E-06
   452 OT DIIS     0.80E-01    0.0     0.00001377      -153.4581017896 -3.89E-06
   453 OT DIIS     0.80E-01    0.0     0.00001364      -153.4581052928 -3.50E-06
   454 OT DIIS     0.80E-01    0.0     0.00001412      -153.4581135542 -8.26E-06
   455 OT DIIS     0.80E-01    0.0     0.00001294      -153.4581172411 -3.69E-06
   456 OT DIIS     0.80E-01    0.0     0.00001283      -153.4581192897 -2.05E-06
   457 OT SD       0.80E-01    0.0     0.00001361      -153.4581245570 -5.27E-06
   458 OT DIIS     0.80E-01    0.0     0.00001281      -153.4581246057 -4.87E-08
   459 OT SD       0.80E-01    0.0     0.00001270      -153.4581274823 -2.88E-06
   460 OT DIIS     0.80E-01    0.0     0.00001254      -153.4581275269 -4.46E-08
   461 OT DIIS     0.80E-01    0.0     0.00001246      -153.4581288367 -1.31E-06
   462 OT DIIS     0.80E-01    0.0     0.00001265      -153.4581323297 -3.49E-06
   463 OT DIIS     0.80E-01    0.0     0.00001220      -153.4581338110 -1.48E-06
   464 OT DIIS     0.80E-01    0.0     0.00001186      -153.4581378093 -4.00E-06
   465 OT DIIS     0.80E-01    0.0     0.00001182      -153.4581390093 -1.20E-06
   466 OT SD       0.80E-01    0.0     0.00001225      -153.4581415717 -2.56E-06
   467 OT DIIS     0.80E-01    0.0     0.00001174      -153.4581416116 -3.99E-08
   468 OT DIIS     0.80E-01    0.0     0.00001152      -153.4581422079 -5.96E-07
   469 OT DIIS     0.80E-01    0.0     0.00001143      -153.4581435351 -1.33E-06
   470 OT DIIS     0.80E-01    0.0     0.00001139      -153.4581442967 -7.62E-07
   471 OT DIIS     0.80E-01    0.0     0.00001133      -153.4581447657 -4.69E-07
   472 OT DIIS     0.80E-01    0.0     0.00001120      -153.4581460454 -1.28E-06
   473 OT DIIS     0.80E-01    0.0     0.00001113      -153.4581465753 -5.30E-07
   474 OT DIIS     0.80E-01    0.0     0.00001102      -153.4581482405 -1.67E-06
   475 OT DIIS     0.80E-01    0.0     0.00001096      -153.4581493408 -1.10E-06
   476 OT DIIS     0.80E-01    0.0     0.00001093      -153.4581498268 -4.86E-07
   477 OT DIIS     0.80E-01    0.0     0.00001087      -153.4581513669 -1.54E-06
   478 OT DIIS     0.80E-01    0.0     0.00001082      -153.4581521465 -7.80E-07
   479 OT DIIS     0.80E-01    0.0     0.00001078      -153.4581531183 -9.72E-07
   480 OT DIIS     0.80E-01    0.0     0.00001074      -153.4581538082 -6.90E-07
   481 OT DIIS     0.80E-01    0.0     0.00001070      -153.4581548255 -1.02E-06
   482 OT DIIS     0.80E-01    0.0     0.00001067      -153.4581556781 -8.53E-07
   483 OT DIIS     0.80E-01    0.0     0.00001062      -153.4581568892 -1.21E-06
   484 OT DIIS     0.80E-01    0.0     0.00001057      -153.4581580574 -1.17E-06
   485 OT DIIS     0.80E-01    0.0     0.00001054      -153.4581591397 -1.08E-06
   486 OT DIIS     0.80E-01    0.0     0.00001048      -153.4581602261 -1.09E-06
   487 OT DIIS     0.80E-01    0.0     0.00001042      -153.4581616520 -1.43E-06
   488 OT DIIS     0.80E-01    0.0     0.00001037      -153.4581634189 -1.77E-06
   489 OT DIIS     0.80E-01    0.0     0.00001032      -153.4581642930 -8.74E-07
   490 OT DIIS     0.80E-01    0.0     0.00001021      -153.4581658754 -1.58E-06
   491 OT DIIS     0.80E-01    0.0     0.00001014      -153.4581674043 -1.53E-06
   492 OT DIIS     0.80E-01    0.0     0.00001005      -153.4581688646 -1.46E-06
   493 OT DIIS     0.80E-01    0.0     0.00000999      -153.4581700009 -1.14E-06
   494 OT DIIS     0.80E-01    0.0     0.00000996      -153.4581709512 -9.50E-07
   495 OT DIIS     0.80E-01    0.0     0.00000994      -153.4581719050 -9.54E-07
   496 OT DIIS     0.80E-01    0.0     0.00000989      -153.4581723003 -3.95E-07
   497 OT DIIS     0.80E-01    0.0     0.00000985      -153.4581730168 -7.17E-07
   498 OT DIIS     0.80E-01    0.0     0.00000976      -153.4581739331 -9.16E-07
   499 OT DIIS     0.80E-01    0.0     0.00000967      -153.4581751929 -1.26E-06
   500 OT DIIS     0.80E-01    0.0     0.00000962      -153.4581759588 -7.66E-07
   501 OT DIIS     0.80E-01    0.0     0.00000959      -153.4581764634 -5.05E-07
   502 OT DIIS     0.80E-01    0.0     0.00000956      -153.4581773778 -9.14E-07
   503 OT DIIS     0.80E-01    0.0     0.00000951      -153.4581782137 -8.36E-07
   504 OT DIIS     0.80E-01    0.0     0.00000943      -153.4581793600 -1.15E-06
   505 OT DIIS     0.80E-01    0.0     0.00000939      -153.4581804929 -1.13E-06
   506 OT DIIS     0.80E-01    0.0     0.00000933      -153.4581812123 -7.19E-07
   507 OT DIIS     0.80E-01    0.0     0.00000929      -153.4581820451 -8.33E-07
   508 OT DIIS     0.80E-01    0.0     0.00000925      -153.4581829623 -9.17E-07
   509 OT DIIS     0.80E-01    0.0     0.00000922      -153.4581835821 -6.20E-07
   510 OT DIIS     0.80E-01    0.0     0.00000919      -153.4581843408 -7.59E-07
   511 OT DIIS     0.80E-01    0.0     0.00000916      -153.4581852403 -9.00E-07
   512 OT DIIS     0.80E-01    0.0     0.00000913      -153.4581861287 -8.88E-07
   513 OT DIIS     0.80E-01    0.0     0.00000907      -153.4581872906 -1.16E-06
   514 OT DIIS     0.80E-01    0.0     0.00000901      -153.4581886413 -1.35E-06
   515 OT DIIS     0.80E-01    0.0     0.00000893      -153.4581904537 -1.81E-06
   516 OT DIIS     0.80E-01    0.0     0.00000887      -153.4581915990 -1.15E-06
   517 OT DIIS     0.80E-01    0.0     0.00000882      -153.4581921029 -5.04E-07
   518 OT DIIS     0.80E-01    0.0     0.00000877      -153.4581929122 -8.09E-07
   519 OT DIIS     0.80E-01    0.0     0.00000872      -153.4581931931 -2.81E-07
   520 OT DIIS     0.80E-01    0.0     0.00000867      -153.4581936511 -4.58E-07
   521 OT DIIS     0.80E-01    0.0     0.00000861      -153.4581941540 -5.03E-07
   522 OT DIIS     0.80E-01    0.0     0.00000856      -153.4581947435 -5.90E-07
   523 OT DIIS     0.80E-01    0.0     0.00000851      -153.4581952305 -4.87E-07
   524 OT DIIS     0.80E-01    0.0     0.00000846      -153.4581960709 -8.40E-07
   525 OT DIIS     0.80E-01    0.0     0.00000842      -153.4581965837 -5.13E-07
   526 OT DIIS     0.80E-01    0.0     0.00000838      -153.4581974269 -8.43E-07
   527 OT DIIS     0.80E-01    0.0     0.00000833      -153.4581983234 -8.97E-07
   528 OT DIIS     0.80E-01    0.0     0.00000830      -153.4581989994 -6.76E-07
   529 OT DIIS     0.80E-01    0.0     0.00000825      -153.4582000385 -1.04E-06
   530 OT DIIS     0.80E-01    0.0     0.00000821      -153.4582009409 -9.02E-07
   531 OT DIIS     0.80E-01    0.0     0.00000818      -153.4582016676 -7.27E-07
   532 OT DIIS     0.80E-01    0.0     0.00000814      -153.4582022242 -5.57E-07
   533 OT DIIS     0.80E-01    0.0     0.00000811      -153.4582033910 -1.17E-06
   534 OT DIIS     0.80E-01    0.0     0.00000807      -153.4582050350 -1.64E-06
   535 OT DIIS     0.80E-01    0.0     0.00000803      -153.4582057455 -7.11E-07
   536 OT DIIS     0.80E-01    0.0     0.00000791      -153.4582074412 -1.70E-06
   537 OT DIIS     0.80E-01    0.0     0.00000787      -153.4582097956 -2.35E-06
   538 OT DIIS     0.80E-01    0.0     0.00000781      -153.4582117810 -1.99E-06
   539 OT DIIS     0.80E-01    0.0     0.00000768      -153.4582120766 -2.96E-07
   540 OT DIIS     0.80E-01    0.0     0.00000779      -153.4582139605 -1.88E-06
   541 OT DIIS     0.80E-01    0.0     0.00000744      -153.4582159280 -1.97E-06
   542 OT DIIS     0.80E-01    0.0     0.00000749      -153.4582177663 -1.84E-06
   543 OT DIIS     0.80E-01    0.0     0.00000767      -153.4582189694 -1.20E-06
   544 OT DIIS     0.80E-01    0.0     0.00000720      -153.4582204346 -1.47E-06
   545 OT SD       0.80E-01    0.0     0.00000707      -153.4582214071 -9.72E-07
   546 OT DIIS     0.80E-01    0.0     0.00000702      -153.4582214210 -1.39E-08
   547 OT DIIS     0.80E-01    0.0     0.00000694      -153.4582226620 -1.24E-06
   548 OT DIIS     0.80E-01    0.0     0.00000682      -153.4582238806 -1.22E-06
   549 OT DIIS     0.80E-01    0.0     0.00000667      -153.4582254287 -1.55E-06
   550 OT DIIS     0.80E-01    0.0     0.00000658      -153.4582263070 -8.78E-07
   551 OT DIIS     0.80E-01    0.0     0.00000650      -153.4582270758 -7.69E-07
   552 OT SD       0.80E-01    0.0     0.00000645      -153.4582282261 -1.15E-06
   553 OT DIIS     0.80E-01    0.0     0.00000638      -153.4582282377 -1.15E-08
   554 OT DIIS     0.80E-01    0.0     0.00000629      -153.4582289151 -6.77E-07
   555 OT DIIS     0.80E-01    0.0     0.00000623      -153.4582299122 -9.97E-07
   556 OT DIIS     0.80E-01    0.0     0.00000610      -153.4582307934 -8.81E-07
   557 OT DIIS     0.80E-01    0.0     0.00000601      -153.4582316251 -8.32E-07
   558 OT DIIS     0.80E-01    0.0     0.00000594      -153.4582325190 -8.94E-07
   559 OT DIIS     0.80E-01    0.0     0.00000589      -153.4582330096 -4.91E-07
   560 OT DIIS     0.80E-01    0.0     0.00000585      -153.4582332358 -2.26E-07
   561 OT DIIS     0.80E-01    0.0     0.00000581      -153.4582338548 -6.19E-07
   562 OT DIIS     0.80E-01    0.0     0.00000573      -153.4582344129 -5.58E-07
   563 OT DIIS     0.80E-01    0.0     0.00000567      -153.4582349063 -4.93E-07
   564 OT DIIS     0.80E-01    0.0     0.00000562      -153.4582354063 -5.00E-07
   565 OT DIIS     0.80E-01    0.0     0.00000557      -153.4582359464 -5.40E-07
   566 OT DIIS     0.80E-01    0.0     0.00000554      -153.4582363054 -3.59E-07
   567 OT DIIS     0.80E-01    0.0     0.00000551      -153.4582365907 -2.85E-07
   568 OT SD       0.80E-01    0.0     0.00000547      -153.4582368882 -2.97E-07
   569 OT DIIS     0.80E-01    0.0     0.00000540      -153.4582368965 -8.29E-09
   570 OT DIIS     0.80E-01    0.0     0.00000533      -153.4582371753 -2.79E-07
   571 OT DIIS     0.80E-01    0.0     0.00000528      -153.4582375138 -3.39E-07
   572 OT SD       0.80E-01    0.0     0.00000525      -153.4582376453 -1.31E-07
   573 OT DIIS     0.80E-01    0.0     0.00000525      -153.4582376531 -7.73E-09
   574 OT DIIS     0.80E-01    0.0     0.00000521      -153.4582378001 -1.47E-07
   575 OT DIIS     0.80E-01    0.0     0.00000518      -153.4582379125 -1.12E-07
   576 OT DIIS     0.80E-01    0.0     0.00000514      -153.4582380504 -1.38E-07
   577 OT DIIS     0.80E-01    0.0     0.00000511      -153.4582382906 -2.40E-07
   578 OT DIIS     0.80E-01    0.0     0.00000508      -153.4582385348 -2.44E-07
   579 OT DIIS     0.80E-01    0.0     0.00000507      -153.4582387290 -1.94E-07
   580 OT DIIS     0.80E-01    0.0     0.00000504      -153.4582389946 -2.66E-07
   581 OT DIIS     0.80E-01    0.0     0.00000501      -153.4582391777 -1.83E-07
   582 OT DIIS     0.80E-01    0.0     0.00000500      -153.4582393394 -1.62E-07
   583 OT DIIS     0.80E-01    0.0     0.00000497      -153.4582396154 -2.76E-07
   584 OT DIIS     0.80E-01    0.0     0.00000495      -153.4582398808 -2.65E-07
   585 OT DIIS     0.80E-01    0.0     0.00000493      -153.4582402104 -3.30E-07
   586 OT DIIS     0.80E-01    0.0     0.00000492      -153.4582405430 -3.33E-07
   587 OT DIIS     0.80E-01    0.0     0.00000490      -153.4582409921 -4.49E-07
   588 OT DIIS     0.80E-01    0.0     0.00000488      -153.4582415711 -5.79E-07
   589 OT DIIS     0.80E-01    0.0     0.00000485      -153.4582418655 -2.94E-07
   590 OT DIIS     0.80E-01    0.0     0.00000484      -153.4582423266 -4.61E-07
   591 OT DIIS     0.80E-01    0.0     0.00000479      -153.4582428788 -5.52E-07
   592 OT DIIS     0.80E-01    0.0     0.00000476      -153.4582436229 -7.44E-07
   593 OT DIIS     0.80E-01    0.0     0.00000469      -153.4582447269 -1.10E-06
   594 OT DIIS     0.80E-01    0.0     0.00000458      -153.4582456489 -9.22E-07
   595 OT DIIS     0.80E-01    0.0     0.00000455      -153.4582460952 -4.46E-07
   596 OT DIIS     0.80E-01    0.0     0.00000453      -153.4582464392 -3.44E-07
   597 OT DIIS     0.80E-01    0.0     0.00000452      -153.4582466326 -1.93E-07
   598 OT DIIS     0.80E-01    0.0     0.00000464      -153.4582473299 -6.97E-07
   599 OT DIIS     0.80E-01    0.0     0.00000477      -153.4582474397 -1.10E-07
   600 OT DIIS     0.80E-01    0.0     0.00000441      -153.4582474703 -3.07E-08
   601 OT DIIS     0.80E-01    0.0     0.00000440      -153.4582482862 -8.16E-07
   602 OT DIIS     0.80E-01    0.0     0.00000428      -153.4582484097 -1.24E-07
   603 OT DIIS     0.80E-01    0.0     0.00000416      -153.4582490570 -6.47E-07
   604 OT SD       0.80E-01    0.0     0.00000455      -153.4582501071 -1.05E-06
   605 OT DIIS     0.80E-01    0.0     0.00000410      -153.4582501123 -5.24E-09
   606 OT DIIS     0.80E-01    0.0     0.00000408      -153.4582504202 -3.08E-07
   607 OT DIIS     0.80E-01    0.0     0.00000386      -153.4582510761 -6.56E-07
   608 OT DIIS     0.80E-01    0.0     0.00000381      -153.4582514906 -4.15E-07
   609 OT DIIS     0.80E-01    0.0     0.00000376      -153.4582516480 -1.57E-07
   610 OT DIIS     0.80E-01    0.0     0.00000383      -153.4582521411 -4.93E-07
   611 OT DIIS     0.80E-01    0.0     0.00000357      -153.4582523734 -2.32E-07
   612 OT DIIS     0.80E-01    0.0     0.00000382      -153.4582531930 -8.20E-07
   613 OT DIIS     0.80E-01    0.0     0.00000366      -153.4582536778 -4.85E-07
   614 OT DIIS     0.80E-01    0.0     0.00000338      -153.4582538930 -2.15E-07
   615 OT DIIS     0.80E-01    0.0     0.00000334      -153.4582540128 -1.20E-07
   616 OT DIIS     0.80E-01    0.0     0.00000326      -153.4582544337 -4.21E-07
   617 OT DIIS     0.80E-01    0.0     0.00000321      -153.4582545532 -1.20E-07
   618 OT DIIS     0.80E-01    0.0     0.00000315      -153.4582546454 -9.23E-08
   619 OT DIIS     0.80E-01    0.0     0.00000311      -153.4582548036 -1.58E-07
   620 OT SD       0.80E-01    0.0     0.00000342      -153.4582554991 -6.96E-07
   621 OT SD       0.80E-01    0.0     0.00000314      -153.4582555021 -2.98E-09
   622 OT DIIS     0.80E-01    0.0     0.00000306      -153.4582555048 -2.66E-09
   623 OT DIIS     0.80E-01    0.0     0.00000304      -153.4582558961 -3.91E-07
   624 OT DIIS     0.80E-01    0.0     0.00000297      -153.4582561458 -2.50E-07
   625 OT DIIS     0.80E-01    0.0     0.00000295      -153.4582563486 -2.03E-07
   626 OT DIIS     0.80E-01    0.0     0.00000293      -153.4582565352 -1.87E-07
   627 OT DIIS     0.80E-01    0.0     0.00000286      -153.4582567448 -2.10E-07
   628 OT DIIS     0.80E-01    0.0     0.00000281      -153.4582569867 -2.42E-07
   629 OT DIIS     0.80E-01    0.0     0.00000278      -153.4582570714 -8.47E-08
   630 OT DIIS     0.80E-01    0.0     0.00000272      -153.4582571275 -5.61E-08
   631 OT DIIS     0.80E-01    0.0     0.00000268      -153.4582571626 -3.51E-08
   632 OT DIIS     0.80E-01    0.0     0.00000265      -153.4582573532 -1.91E-07
   633 OT DIIS     0.80E-01    0.0     0.00000258      -153.4582576135 -2.60E-07
   634 OT DIIS     0.80E-01    0.0     0.00000252      -153.4582578971 -2.84E-07
   635 OT DIIS     0.80E-01    0.0     0.00000247      -153.4582582284 -3.31E-07
   636 OT DIIS     0.80E-01    0.0     0.00000241      -153.4582584346 -2.06E-07
   637 OT DIIS     0.80E-01    0.0     0.00000244      -153.4582588214 -3.87E-07
   638 OT DIIS     0.80E-01    0.0     0.00000275      -153.4582593529 -5.32E-07
   639 OT SD       0.80E-01    0.0     0.00000259      -153.4582595352 -1.82E-07
   640 OT DIIS     0.80E-01    0.0     0.00000230      -153.4582595369 -1.68E-09
   641 OT DIIS     0.80E-01    0.0     0.00000220      -153.4582597045 -1.68E-07
   642 OT DIIS     0.80E-01    0.0     0.00000237      -153.4582601051 -4.01E-07
   643 OT DIIS     0.80E-01    0.0     0.00000210      -153.4582603466 -2.42E-07
   644 OT DIIS     0.80E-01    0.0     0.00000200      -153.4582605177 -1.71E-07
   645 OT DIIS     0.80E-01    0.0     0.00000197      -153.4582607326 -2.15E-07
   646 OT DIIS     0.80E-01    0.0     0.00000195      -153.4582609447 -2.12E-07
   647 OT DIIS     0.80E-01    0.0     0.00000186      -153.4582610616 -1.17E-07
   648 OT DIIS     0.80E-01    0.0     0.00000202      -153.4582611964 -1.35E-07
   649 OT DIIS     0.80E-01    0.0     0.00000172      -153.4582613481 -1.52E-07
   650 OT DIIS     0.80E-01    0.0     0.00000186      -153.4582615732 -2.25E-07
   651 OT DIIS     0.80E-01    0.0     0.00000162      -153.4582616200 -4.69E-08
   652 OT DIIS     0.80E-01    0.0     0.00000162      -153.4582617550 -1.35E-07
   653 OT DIIS     0.80E-01    0.0     0.00000157      -153.4582618099 -5.49E-08
   654 OT DIIS     0.80E-01    0.0     0.00000152      -153.4582619097 -9.98E-08
   655 OT DIIS     0.80E-01    0.0     0.00000147      -153.4582619648 -5.51E-08
   656 OT DIIS     0.80E-01    0.0     0.00000146      -153.4582620220 -5.72E-08
   657 OT DIIS     0.80E-01    0.0     0.00000143      -153.4582620534 -3.14E-08
   658 OT DIIS     0.80E-01    0.0     0.00000141      -153.4582621269 -7.35E-08
   659 OT DIIS     0.80E-01    0.0     0.00000139      -153.4582621994 -7.24E-08
   660 OT DIIS     0.80E-01    0.0     0.00000136      -153.4582622965 -9.71E-08
   661 OT DIIS     0.80E-01    0.0     0.00000131      -153.4582624348 -1.38E-07
   662 OT DIIS     0.80E-01    0.0     0.00000129      -153.4582625151 -8.03E-08
   663 OT DIIS     0.80E-01    0.0     0.00000127      -153.4582626234 -1.08E-07
   664 OT DIIS     0.80E-01    0.0     0.00000123      -153.4582626709 -4.75E-08
   665 OT DIIS     0.80E-01    0.0     0.00000119      -153.4582627103 -3.94E-08
   666 OT DIIS     0.80E-01    0.0     0.00000118      -153.4582627836 -7.33E-08
   667 OT DIIS     0.80E-01    0.0     0.00000117      -153.4582628503 -6.67E-08
   668 OT DIIS     0.80E-01    0.0     0.00000111      -153.4582628721 -2.18E-08
   669 OT DIIS     0.80E-01    0.0     0.00000107      -153.4582629294 -5.73E-08
   670 OT DIIS     0.80E-01    0.0     0.00000102      -153.4582629510 -2.16E-08
   671 OT DIIS     0.80E-01    0.0     0.00000100      -153.4582629857 -3.47E-08

  *** SCF run converged in   671 steps ***


  Core-core repulsion energy [eV]:                          17376.03713847033941
  Core Hamiltonian energy [eV]:                             -5715.88645985582389
  Two-electron integral energy [eV]:                       -30659.68716577267332
  Electronic energy [eV]:                                  -21045.73004274216146
  QM/MM Electrostatic energy:                                 -18.59952431897023

  Total energy [eV]:                                        -4175.81170006467346

  Atomic reference energy [eV]:                              3689.50128793716158
  Heat of formation [kcal/mol]:                            -11214.58540854652529

  outer SCF iter =    1 RMS gradient =   0.10E-05 energy =       -153.4582629857
  outer SCF loop converged in   1 iterations or  671 steps


 ENERGY| Total FORCE_EVAL ( QMMM ) energy (a.u.):           -662.927381961045057


 MD_ENERGIES| Initialization proceeding


 ******************************** GO CP2K GO! **********************************
 INITIAL POTENTIAL ENERGY[hartree]     =                     -0.662927381961E+03
 TOTAL INITIAL KINETIC ENERGY[hartree] =                      0.391798645435E+02
 QM INITIAL KINETIC ENERGY[hartree]    =                      0.844723661787E-02
 TOTAL INITIAL TEMPERATURE[K]          =                                  89.638
 QM INITIAL TEMPERATURE[K]             =                                  80.831
 INITIAL BAROSTAT TEMP[K]              =                      0.298000000000E+03
 INITIAL PRESSURE[bar]                 =                      0.191945872468E+05
 INITIAL VOLUME[bohr^3]                =                      0.733958034462E+07
 INITIAL CELL LNTHS[bohr]   =      0.2004481E+03   0.2085587E+03   0.1755662E+03
 INITIAL CELL ANGLS[deg]    =      0.9000000E+02   0.9000000E+02   0.9000000E+02
 ******************************** GO CP2K GO! **********************************

  Translating the system in order to center the QM fragment in the QM box.

 Number of electrons:                                                         96
 Number of occupied orbitals:                                                 48
 Number of molecular orbitals:                                                48

 Number of orbital functions:                                                 73
 Number of independent orbital functions:                                     73

 Extrapolation method: ASPC


 SCF WAVEFUNCTION OPTIMIZATION

  ----------------------------------- OT ---------------------------------------
  Minimizer      : DIIS                : direct inversion
                                         in the iterative subspace
                                         using   7 DIIS vectors
                                         safer DIIS on
  Preconditioner : FULL_SINGLE_INVERSE : inversion of 
                                         H + eS - 2*(Sc)(c^T*H*c+const)(Sc)^T
  Precond_solver : DEFAULT
  stepsize       :    0.08000000                  energy_gap     :    0.08000000
  eps_taylor     :   0.10000E-15                  max_taylor     :             4
  ----------------------------------- OT ---------------------------------------

  Step     Update method      Time    Convergence         Total energy    Change
  ------------------------------------------------------------------------------
     1 OT DIIS     0.80E-01    0.0     0.00022365      -153.4364322865 -1.53E+02
     2 OT DIIS     0.80E-01    0.0     0.00014358      -153.4364432822 -1.10E-05
     3 OT DIIS     0.80E-01    0.0     0.00009329      -153.4364502265 -6.94E-06
     4 OT DIIS     0.80E-01    0.0     0.00006132      -153.4364534384 -3.21E-06
     5 OT DIIS     0.80E-01    0.0     0.00003905      -153.4364550886 -1.65E-06
     6 OT DIIS     0.80E-01    0.0     0.00002585      -153.4364558534 -7.65E-07
     7 OT DIIS     0.80E-01    0.0     0.00001911      -153.4364562427 -3.89E-07
     8 OT DIIS     0.80E-01    0.0     0.00001531      -153.4364564393 -1.97E-07
     9 OT DIIS     0.80E-01    0.0     0.00001279      -153.4364565923 -1.53E-07
    10 OT DIIS     0.80E-01    0.0     0.00001109      -153.4364567200 -1.28E-07
    11 OT DIIS     0.80E-01    0.0     0.00000986      -153.4364568139 -9.39E-08
    12 OT DIIS     0.80E-01    0.0     0.00000884      -153.4364569130 -9.91E-08
    13 OT DIIS     0.80E-01    0.0     0.00000814      -153.4364569949 -8.19E-08
    14 OT DIIS     0.80E-01    0.0     0.00000749      -153.4364570737 -7.89E-08
    15 OT DIIS     0.80E-01    0.0     0.00000668      -153.4364571679 -9.41E-08
    16 OT DIIS     0.80E-01    0.0     0.00000597      -153.4364572503 -8.24E-08
    17 OT DIIS     0.80E-01    0.0     0.00000530      -153.4364573237 -7.34E-08
    18 OT DIIS     0.80E-01    0.0     0.00000475      -153.4364573759 -5.22E-08
    19 OT DIIS     0.80E-01    0.0     0.00000434      -153.4364574137 -3.79E-08
    20 OT DIIS     0.80E-01    0.0     0.00000399      -153.4364574457 -3.20E-08
    21 OT DIIS     0.80E-01    0.0     0.00000377      -153.4364574675 -2.18E-08
    22 OT DIIS     0.80E-01    0.0     0.00000360      -153.4364574860 -1.85E-08
    23 OT DIIS     0.80E-01    0.0     0.00000346      -153.4364575040 -1.80E-08
    24 OT DIIS     0.80E-01    0.0     0.00000335      -153.4364575201 -1.61E-08
    25 OT DIIS     0.80E-01    0.0     0.00000325      -153.4364575372 -1.71E-08
    26 OT DIIS     0.80E-01    0.0     0.00000315      -153.4364575544 -1.72E-08
    27 OT DIIS     0.80E-01    0.0     0.00000307      -153.4364575729 -1.85E-08
    28 OT DIIS     0.80E-01    0.0     0.00000296      -153.4364575951 -2.22E-08
    29 OT DIIS     0.80E-01    0.0     0.00000285      -153.4364576190 -2.38E-08
    30 OT DIIS     0.80E-01    0.0     0.00000271      -153.4364576474 -2.84E-08
    31 OT DIIS     0.80E-01    0.0     0.00000256      -153.4364576767 -2.94E-08
    32 OT DIIS     0.80E-01    0.0     0.00000241      -153.4364577036 -2.69E-08
    33 OT DIIS     0.80E-01    0.0     0.00000222      -153.4364577303 -2.67E-08
    34 OT DIIS     0.80E-01    0.0     0.00000204      -153.4364577513 -2.10E-08
    35 OT DIIS     0.80E-01    0.0     0.00000186      -153.4364577667 -1.54E-08
    36 OT DIIS     0.80E-01    0.0     0.00000169      -153.4364577771 -1.04E-08
    37 OT DIIS     0.80E-01    0.0     0.00000153      -153.4364577829 -5.74E-09
    38 OT DIIS     0.80E-01    0.0     0.00000138      -153.4364577857 -2.80E-09
    39 OT DIIS     0.80E-01    0.0     0.00000126      -153.4364577862 -5.72E-10
    40 OT SD       0.80E-01    0.0     0.00000117      -153.4364577858  4.05E-10
    41 OT SD       0.80E-01    0.0     0.00000112      -153.4364577862 -3.69E-10
    42 OT DIIS     0.80E-01    0.0     0.00000108      -153.4364577865 -3.44E-10
    43 OT DIIS     0.80E-01    0.0     0.00000082      -153.4364577860  4.83E-10

  *** SCF run converged in    43 steps ***


  Core-core repulsion energy [eV]:                          17374.74935996130807
  Core Hamiltonian energy [eV]:                             -5715.94624563545312
  Two-electron integral energy [eV]:                       -30657.01715369321755
  Electronic energy [eV]:                                  -21044.45482248206463
  QM/MM Electrostatic energy:                                 -18.57725761212722

  Total energy [eV]:                                        -4175.21835040647966

  Atomic reference energy [eV]:                              3689.50128793716158
  Heat of formation [kcal/mol]:                            -11200.90243928861128

  outer SCF iter =    1 RMS gradient =   0.82E-06 energy =       -153.4364577860
  outer SCF loop converged in   1 iterations or   43 steps


 ENERGY| Total FORCE_EVAL ( QMMM ) energy (a.u.):           -664.662697761938261


 *******************************************************************************
 ENSEMBLE TYPE                =                                            NPT_I
 STEP NUMBER                  =                                                1
 TIME [fs]                    =                                         0.500000
 CONSERVED QUANTITY [hartree] =                              -0.623802658547E+03

                                              INSTANTANEOUS             AVERAGES
 CPU TIME [s]                 =                       26.16                26.16
 ENERGY DRIFT PER ATOM [K]    =         -0.276459700972E+00   0.000000000000E+00
 POTENTIAL ENERGY[hartree]    =         -0.664662697762E+03  -0.664662697762E+03
 TOTAL KINETIC ENERGY[hartree]=          0.451345293243E+02   0.451345293243E+02
 QM KINETIC ENERGY[hartree]   =          0.109361122031E-01   0.109361122031E-01
 TOTAL TEMPERATURE[K]         =                     103.261              103.261
 QM TEMPERATURE[K]            =                     104.647              104.647
 PRESSURE [bar]               =          0.168408931187E+05   0.168408931187E+05
 BAROSTAT TEMP[K]             =          0.603350813267E+05   0.603350813267E+05
 VOLUME[bohr^3]               =          0.734128516069E+07   0.734128516069E+07
 CELL LNTHS[bohr]             =    0.2004636E+03   0.2085749E+03   0.1755798E+03
 AVE. CELL LNTHS[bohr]        =    0.2004636E+03   0.2085749E+03   0.1755798E+03
 *******************************************************************************


  Translating the system in order to center the QM fragment in the QM box.

 Number of electrons:                                                         96
 Number of occupied orbitals:                                                 48
 Number of molecular orbitals:                                                48

 Number of orbital functions:                                                 73
 Number of independent orbital functions:                                     73

 Extrapolation method: ASPC


 SCF WAVEFUNCTION OPTIMIZATION

  ----------------------------------- OT ---------------------------------------
  Minimizer      : DIIS                : direct inversion
                                         in the iterative subspace
                                         using   7 DIIS vectors
                                         safer DIIS on
  Preconditioner : FULL_SINGLE_INVERSE : inversion of 
                                         H + eS - 2*(Sc)(c^T*H*c+const)(Sc)^T
  Precond_solver : DEFAULT
[...]
    14 OT DIIS     0.80E-01    0.0     0.00000113      -151.6578333801 -1.15E-09
    15 OT DIIS     0.80E-01    0.0     0.00000099      -151.6578333812 -1.07E-09

  *** SCF run converged in    15 steps ***


  Core-core repulsion energy [eV]:                          17540.37909582374414
  Core Hamiltonian energy [eV]:                             -5733.23356287880597
  Two-electron integral energy [eV]:                       -30956.37632821099032
  Electronic energy [eV]:                                  -21211.42172698429931
  QM/MM Electrostatic energy:                                 -16.74949316181445

  Total energy [eV]:                                        -4126.81951898945681

  Atomic reference energy [eV]:                              3689.50128793716158
  Heat of formation [kcal/mol]:                            -10084.79878395964261

  outer SCF iter =    1 RMS gradient =   0.99E-06 energy =       -151.6578333812
  outer SCF loop converged in   1 iterations or   15 steps


 ENERGY| Total FORCE_EVAL ( QMMM ) energy (a.u.):           -672.481580302045018


 *******************************************************************************
 ENSEMBLE TYPE                =                                            NPT_I
 STEP NUMBER                  =                                               19
 TIME [fs]                    =                                         9.500000
 CONSERVED QUANTITY [hartree] =                              -0.624011178091E+03

                                              INSTANTANEOUS             AVERAGES
 CPU TIME [s]                 =                        5.56                 7.43
 ENERGY DRIFT PER ATOM [K]    =         -0.992043789471E+00  -0.585564798964E+00
 POTENTIAL ENERGY[hartree]    =         -0.672481580302E+03  -0.671472567646E+03
 TOTAL KINETIC ENERGY[hartree]=          0.981761879939E+02   0.768413883464E+02
 QM KINETIC ENERGY[hartree]   =          0.873087722901E-01   0.726920858641E-01
 TOTAL TEMPERATURE[K]         =                     224.612              175.801
 QM TEMPERATURE[K]            =                     835.451              695.585
 PRESSURE [bar]               =         -0.534179014272E+04  -0.547124898793E+04
 BAROSTAT TEMP[K]             =          0.142195238871E+07   0.241259841820E+06
 VOLUME[bohr^3]               =          0.733622150753E+07   0.736199445544E+07
 CELL LNTHS[bohr]             =    0.2004175E+03   0.2085269E+03   0.1755394E+03
 AVE. CELL LNTHS[bohr]        =    0.2006519E+03   0.2087707E+03   0.1757447E+03
 *******************************************************************************


  Translating the system in order to center the QM fragment in the QM box.

 Number of electrons:                                                         96
 Number of occupied orbitals:                                                 48
 Number of molecular orbitals:                                                48

 Number of orbital functions:                                                 73
 Number of independent orbital functions:                                     73

 Extrapolation method: ASPC


 SCF WAVEFUNCTION OPTIMIZATION

  ----------------------------------- OT ---------------------------------------
  Minimizer      : DIIS                : direct inversion
                                         in the iterative subspace
                                         using   7 DIIS vectors
                                         safer DIIS on
  Preconditioner : FULL_SINGLE_INVERSE : inversion of 
                                         H + eS - 2*(Sc)(c^T*H*c+const)(Sc)^T
  Precond_solver : DEFAULT
  stepsize       :    0.08000000                  energy_gap     :    0.08000000
  eps_taylor     :   0.10000E-15                  max_taylor     :             4
  ----------------------------------- OT ---------------------------------------

  Step     Update method      Time    Convergence         Total energy    Change
  ------------------------------------------------------------------------------
     1 OT DIIS     0.80E-01    0.0     0.00014590      -151.6020799492 -1.52E+02
     2 OT DIIS     0.80E-01    0.0     0.00009058      -151.6020845176 -4.57E-06
     3 OT DIIS     0.80E-01    0.0     0.00005558      -151.6020870760 -2.56E-06
     4 OT DIIS     0.80E-01    0.0     0.00002958      -151.6020883777 -1.30E-06
     5 OT DIIS     0.80E-01    0.0     0.00001825      -151.6020888067 -4.29E-07
     6 OT DIIS     0.80E-01    0.0     0.00001282      -151.6020889261 -1.19E-07
     7 OT DIIS     0.80E-01    0.0     0.00000783      -151.6020889966 -7.05E-08
     8 OT DIIS     0.80E-01    0.0     0.00000542      -151.6020890288 -3.22E-08
     9 OT DIIS     0.80E-01    0.0     0.00000438      -151.6020890428 -1.40E-08
    10 OT DIIS     0.80E-01    0.0     0.00000362      -151.6020890516 -8.83E-09
    11 OT DIIS     0.80E-01    0.0     0.00000300      -151.6020890601 -8.48E-09
    12 OT DIIS     0.80E-01    0.0     0.00000266      -151.6020890670 -6.84E-09
    13 OT DIIS     0.80E-01    0.0     0.00000244      -151.6020890720 -5.04E-09
    14 OT DIIS     0.80E-01    0.0     0.00000220      -151.6020890775 -5.50E-09
    15 OT DIIS     0.80E-01    0.0     0.00000201      -151.6020890829 -5.44E-09
    16 OT DIIS     0.80E-01    0.0     0.00000181      -151.6020890877 -4.79E-09
    17 OT DIIS     0.80E-01    0.0     0.00000162      -151.6020890924 -4.71E-09
    18 OT DIIS     0.80E-01    0.0     0.00000149      -151.6020890962 -3.78E-09
    19 OT DIIS     0.80E-01    0.0     0.00000135      -151.6020890991 -2.89E-09
    20 OT DIIS     0.80E-01    0.0     0.00000122      -151.6020891020 -2.90E-09
    21 OT DIIS     0.80E-01    0.0     0.00000115      -151.6020891039 -1.93E-09
    22 OT DIIS     0.80E-01    0.0     0.00000108      -151.6020891055 -1.52E-09
    23 OT DIIS     0.80E-01    0.0     0.00000103      -151.6020891068 -1.38E-09
    24 OT DIIS     0.80E-01    0.0     0.00000099      -151.6020891079 -1.09E-09

  *** SCF run converged in    24 steps ***


  Core-core repulsion energy [eV]:                          17566.75773998844306
  Core Hamiltonian energy [eV]:                             -5734.31526379227489
  Two-electron integral energy [eV]:                       -31006.57620751649665
  Electronic energy [eV]:                                  -21237.60336755052413
  QM/MM Electrostatic energy:                                 -16.70098863788391

  Total energy [eV]:                                        -4125.30264017152604

  Atomic reference energy [eV]:                              3689.50128793716158
  Heat of formation [kcal/mol]:                            -10049.81872465209017

  outer SCF iter =    1 RMS gradient =   0.99E-06 energy =       -151.6020891079
  outer SCF loop converged in   1 iterations or   24 steps


 ENERGY| Total FORCE_EVAL ( QMMM ) energy (a.u.):           -678.370551042249076


 *******************************************************************************
 ENSEMBLE TYPE                =                                            NPT_I
 STEP NUMBER                  =                                               20
 TIME [fs]                    =                                        10.000000
 CONSERVED QUANTITY [hartree] =                              -0.623998306918E+03

                                              INSTANTANEOUS             AVERAGES
 CPU TIME [s]                 =                       12.65                 7.69
 ENERGY DRIFT PER ATOM [K]    =         -0.947873318721E+00  -0.603680224952E+00
 POTENTIAL ENERGY[hartree]    =         -0.678370551042E+03  -0.671817466816E+03
 TOTAL KINETIC ENERGY[hartree]=          0.105377261868E+03   0.782681820225E+02
 QM KINETIC ENERGY[hartree]   =          0.798291509711E-01   0.730489391195E-01
 TOTAL TEMPERATURE[K]         =                     241.087              179.066
 QM TEMPERATURE[K]            =                     763.879              699.000
 PRESSURE [bar]               =          0.476614407196E+04  -0.495937933494E+04
 BAROSTAT TEMP[K]             =          0.136259224979E+07   0.297326462219E+06
 VOLUME[bohr^3]               =          0.732151583021E+07   0.735997052418E+07
 CELL LNTHS[bohr]             =    0.2002835E+03   0.2083875E+03   0.1754220E+03
 AVE. CELL LNTHS[bohr]        =    0.2006335E+03   0.2087516E+03   0.1757286E+03
 *******************************************************************************


 -------------------------------------------------------------------------------
 -                                                                             -
 -                                DBCSR STATISTICS                             -
 -                                                                             -
 -------------------------------------------------------------------------------
 COUNTER                                    TOTAL       BLAS       SMM       ACC
 flops     1 x    16 x    32               107520     100.0%      0.0%      0.0%
 flops     1 x    32 x    16               107520     100.0%      0.0%      0.0%
 flops     1 x    16 x    16               107520     100.0%      0.0%      0.0%
 flops     1 x    32 x    32               430080     100.0%      0.0%      0.0%
 flops    16 x    16 x    73               784896     100.0%      0.0%      0.0%
 flops     1 x    16 x     1               980800     100.0%      0.0%      0.0%
 flops     4 x    16 x    32              1462272     100.0%      0.0%      0.0%
 flops     4 x    32 x    16              1462272     100.0%      0.0%      0.0%
 flops     4 x    16 x    16              1462272     100.0%      0.0%      0.0%
 flops    16 x    32 x    73              1569792     100.0%      0.0%      0.0%
 flops     1 x     1 x    48              1764000     100.0%      0.0%      0.0%
 flops     1 x    32 x     1              1961600     100.0%      0.0%      0.0%
 flops    32 x    32 x    73              3139584     100.0%      0.0%      0.0%
 flops     4 x    32 x    32              5849088     100.0%      0.0%      0.0%
 flops     1 x    16 x     4             13338880     100.0%      0.0%      0.0%
 flops     4 x    16 x     1             13338880     100.0%      0.0%      0.0%
 flops     4 x     1 x    48             19756800     100.0%      0.0%      0.0%
 flops     1 x     4 x    48             20227200     100.0%      0.0%      0.0%
 flops     1 x    32 x     4             26677760     100.0%      0.0%      0.0%
 flops     4 x    32 x     1             26677760     100.0%      0.0%      0.0%
 flops     4 x    16 x     4            181408768     100.0%      0.0%      0.0%
 flops     4 x     4 x    48            287884800     100.0%      0.0%      0.0%
 flops     4 x    32 x     4            362817536     100.0%      0.0%      0.0%
 flops    73 x    48 x    73            615947136     100.0%      0.0%      0.0%
 flops    48 x    48 x    73           1584705024     100.0%      0.0%      0.0%
 flops    48 x    48 x    48           1967431680     100.0%      0.0%      0.0%
 flops    73 x    48 x    48           1975583232     100.0%      0.0%      0.0%
 flops inhomo. stacks                           0       0.0%      0.0%      0.0%
 flops total                         7.116985E+09     100.0%      0.0%      0.0%
 flops max/rank                      7.116985E+09     100.0%      0.0%      0.0%
 matmuls inhomo. stacks                         0       0.0%      0.0%      0.0%
 matmuls total                            1520211     100.0%      0.0%      0.0%
 number of processed stacks                 35706     100.0%      0.0%      0.0%
 average stack size                                    42.6       0.0       0.0
 marketing flops                     7.425583E+09
 -------------------------------------------------------------------------------
 # multiplications                          23218
 max memory usage/rank               0.000000E+00
 # max total images/rank                        1
 # max 3D layers                                1
 # MPI messages exchanged                       0
 MPI messages size (bytes):
  total size                         0.000000E+00
  min size                           0.000000E+00
  max size                           0.000000E+00
  average size                       0.000000E+00
 MPI breakdown and total messages size (bytes):
             size <=      128                   0                        0
       128 < size <=     8192                   0                        0
      8192 < size <=    32768                   0                        0
     32768 < size <=   131072                   0                        0
    131072 < size <=  4194304                   0                        0
   4194304 < size <= 16777216                   0                        0
  16777216 < size                               0                        0
 -------------------------------------------------------------------------------

 MEMORY| Estimated peak process memory [MiB]                                   0

 -------------------------------------------------------------------------------
 -                                                                             -
 -                           R E F E R E N C E S                               -
 -                                                                             -
 -------------------------------------------------------------------------------
 
 CP2K version 5.1, the CP2K developers group (2017).
 CP2K is freely available from https://www.cp2k.org/ .

 Schuett, Ole; Messmer, Peter; Hutter, Juerg; VandeVondele, Joost. 
 Electronic Structure Calculations on Graphics Processing Units, John Wiley & Sons, Ltd, 173-190 (2016). 
 GPU-Accelerated Sparse Matrix-Matrix Multiplication for Linear Scaling Density Functional Theory.
 http://dx.doi.org/10.1002/9781118670712.ch8


 Borstnik, U; VandeVondele, J; Weber, V; Hutter, J. 
 PARALLEL COMPUTING, 40 (5-6), 47-58 (2014). 
 Sparse matrix multiplication: The distributed block-compressed sparse
 row library.
 http://dx.doi.org/10.1016/j.parco.2014.03.012


 Hutter, J; Iannuzzi, M; Schiffmann, F; VandeVondele, J. 
 WILEY INTERDISCIPLINARY REVIEWS-COMPUTATIONAL MOLECULAR SCIENCE, 4 (1), 15-25 (2014). 
 CP2K: atomistic simulations of condensed matter systems.
 http://dx.doi.org/10.1002/wcms.1159


 Bussi, G; Donadio, D; Parrinello, M. 
 JOURNAL OF CHEMICAL PHYSICS, 126 (1), 014101 (2007). 
 Canonical sampling through velocity rescaling.
 http://dx.doi.org/10.1063/1.2408420


 Laino, T; Mohamed, F; Laio, A; Parrinello, M. 
 JOURNAL OF CHEMICAL THEORY AND COMPUTATION, 1 (6), 1176-1184 (2005). 
 An efficient real space multigrid QM/MM electrostatic coupling.
 http://dx.doi.org/10.1021/ct050123f


 Frigo, M; Johnson, SG. 
 PROCEEDINGS OF THE IEEE, 93 (2), 216-231 (2005). 
 The design and implementation of FFTW3.
 http://dx.doi.org/10.1109/JPROC.2004.840301


 Kolafa, J. 
 JOURNAL OF COMPUTATIONAL CHEMISTRY, 25 (3), 335-342 (2004). 
 Time-reversible always stable predictor-corrector method for molecular dynamics of polarizable molecules.
 http://dx.doi.org/10.1002/jcc.10385


 VandeVondele, J; Hutter, J. 
 JOURNAL OF CHEMICAL PHYSICS, 118 (10), 4365-4369 (2003). 
 An efficient orbital transformation method for electronic structure
 calculations.
 http://dx.doi.org/10.1063/1.1543154


 ESSMANN, U; PERERA, L; BERKOWITZ, ML; DARDEN, T; LEE, H; PEDERSEN, LG. 
 JOURNAL OF CHEMICAL PHYSICS, 103 (19), 8577-8593 (1995). 
 A SMOOTH PARTICLE MESH EWALD METHOD.
 http://dx.doi.org/10.1063/1.470117


 STEWART, JJP. 
 JOURNAL OF COMPUTATIONAL CHEMISTRY, 10 (2), 209-220 (1989). 
 OPTIMIZATION OF PARAMETERS FOR SEMIEMPIRICAL METHODS .1. METHOD.
 http://dx.doi.org/10.1002/jcc.540100208


 -------------------------------------------------------------------------------
 -                                                                             -
 -                                T I M I N G                                  -
 -                                                                             -
 -------------------------------------------------------------------------------
 SUBROUTINE                       CALLS  ASD         SELF TIME        TOTAL TIME
                                MAXIMUM       AVERAGE  MAXIMUM  AVERAGE  MAXIMUM
 CP2K                                 1  1.0    0.187    0.187  173.810  173.810
 qs_mol_dyn_low                       1  2.0    0.033    0.033  155.022  155.022
 velocity_verlet                     20  3.0    0.204    0.204  133.262  133.262
 fist_calc_energy_force              21  4.0    0.081    0.081   83.887   83.887
 force_nonbond                       21  5.0   49.283   49.283   49.283   49.283
 qmmm_forces                         21  4.0    0.035    0.035   36.725   36.725
 deriv_se_qmmm_matrix                21  5.0    0.003    0.003   36.690   36.690
 deriv_se_qmmm_matrix_low           462  6.0   36.687   36.687   36.687   36.687
 list_control                        21  5.0    0.050    0.050   28.812   28.812
 build_fist_neighbor_lists            4  5.8    0.005    0.005   28.762   28.762
 build_neighbor_lists                 4  6.8   23.196   23.196   23.633   23.633
 qmmm_el_coupling                    21  4.0    0.000    0.000   19.811   19.811
 build_se_qmmm_matrix                21  5.0    0.002    0.002   19.810   19.810
 build_se_qmmm_matrix_low           462  6.0   19.752   19.752   19.752   19.752
 qmmm_env_create                      1  2.0    4.490    4.490   18.526   18.526
 fist_init                            1  3.0    0.000    0.000   13.999   13.999
 qs_forces                           21  4.0    0.002    0.002   11.858   11.858
 qs_energies                         21  5.0    0.001    0.001   11.655   11.655
 scf_env_do_scf                      21  6.0    0.001    0.001   11.550   11.550
 scf_env_do_scf_inner_loop         1183  6.4    0.080    0.080   11.286   11.286
 qs_scf_new_mos                    1183  7.4    0.003    0.003    9.591    9.591
 qs_scf_loop_do_ot                 1183  8.4    0.003    0.003    9.588    9.588
 ot_scf_mini                       1183  9.4    0.021    0.021    8.988    8.988
 dbcsr_multiply_generic           23218 12.6    0.503    0.503    8.322    8.322
 rdparm_amber_8                       2  6.5    7.158    7.158    7.973    7.973
 topology_control                     1  4.0    0.002    0.002    7.193    7.193
 force_field_control                  1  4.0    0.000    0.000    6.760    6.760
 ot_mini                           1183 10.4    0.003    0.003    5.948    5.948
 sort_neighbor_lists                  4  6.8    5.125    5.125    5.125    5.125
 qs_ot_get_derivative              1183 11.4    0.004    0.004    4.883    4.883
 spme_evaluate                       21  5.0    2.839    2.839    4.818    4.818
 connectivity_control                 2  4.0    0.000    0.000    4.777    4.777
 read_connectivity_amber              1  6.0    0.000    0.000    4.480    4.480
 make_m2s                         46436 13.6    0.362    0.362    3.817    3.817
 read_force_field_amber               1  5.0    0.005    0.005    3.499    3.499
 -------------------------------------------------------------------------------

 The number of warnings for this run is : 1
 
 -------------------------------------------------------------------------------
  **** **** ******  **  PROGRAM ENDED AT                 2019-10-18 10:17:17.840
 ***** ** ***  *** **   PROGRAM RAN ON                              S4A-Q177HV29
 **    ****   ******    PROGRAM RAN BY                                  sllabres
 ***** **    ** ** **   PROGRAM PROCESS ID                                  4013
  **** **  *******  **  PROGRAM STOPPED IN /Users/sllabres/Work/github_repos/CP2
                                           K_tutorials_for_biological_simulation
                                           s/GMX_DAA/section4/monitorisation_qmm
                                           m
