 DBCSR| Multiplication driver                                               BLAS
 DBCSR| Multrec recursion limit                                              512
 DBCSR| Multiplication stack size                                           1000
 DBCSR| Maximum elements for images                                    UNLIMITED
 DBCSR| Multiplicative factor virtual images                                   1
 DBCSR| Multiplication size stacks                                             3


  **** **** ******  **  PROGRAM STARTED AT               2019-08-12 11:29:21.968
 ***** ** ***  *** **   PROGRAM STARTED ON                          S4A-Q177HV29
 **    ****   ******    PROGRAM STARTED BY                              sllabres
 ***** **    ** ** **   PROGRAM PROCESS ID                                 31503
  **** **  *******  **  PROGRAM STARTED IN /Users/sllabres/Work/github_repos/CP2
                                           K_tutorials_for_biological_simulation
                                           s/AMBER_NMA/section2/CP2K

 CP2K| version string:                                          CP2K version 5.1
 CP2K| source code revision number:                                    svn:18091
 CP2K| cp2kflags: no_statm_access accelerate                                    
 CP2K| is freely available from                            https://www.cp2k.org/
 CP2K| Program compiled at                          Wed Apr 10 16:53:40 BST 2019
 CP2K| Program compiled on                                          S4A-Q177HV29
 CP2K| Program compiled for                       Darwin-IntelMacintosh-gfortran
 CP2K| Data directory path          /Users/sllabres/Work/BioExcel2/cp2k-5.1/data
 CP2K| Input file name                                  cp2k_mm_minimisation.inp

 GLOBAL| Force Environment number                                              1
 GLOBAL| Basis set file name                                           BASIS_SET
 GLOBAL| Potential file name                                           POTENTIAL
 GLOBAL| MM Potential file name                                     MM_POTENTIAL
 GLOBAL| Coordinate file name                                         NMA.inpcrd
 GLOBAL| Method name                                                        CP2K
 GLOBAL| Project name                                                         EM
 GLOBAL| Preferred FFT library                                             FFTW3
 GLOBAL| Preferred diagonalization lib.                                       SL
 GLOBAL| Run type                                                        GEO_OPT
 GLOBAL| All-to-all communication in single precision                          F
 GLOBAL| FFTs using library dependent lengths                                  F
 GLOBAL| Global print level                                                  LOW
 GLOBAL| Total number of message passing processes                             1
 GLOBAL| Number of threads for this process                                    1
 GLOBAL| This output is from process                                           0
 GLOBAL| CPU model name : UNKNOWN

 MEMORY| system memory details [Kb]
 MEMORY|                        rank 0           min           max       average
 MEMORY| MemTotal                    0             0             0             0
 MEMORY| MemFree                     0             0             0             0
 MEMORY| Buffers                     0             0             0             0
 MEMORY| Cached                      0             0             0             0
 MEMORY| Slab                        0             0             0             0
 MEMORY| SReclaimable                0             0             0             0
 MEMORY| MemLikelyFree               0             0             0             0

 WARNING : FFT library FFTW3 is not available  Trying FFTSG as a default


                      ************* ******** ***********   
                     ************* **********************  
                     ****     **** ****      ***********   
                     ******** ****  *******     ****       
                     *******  ****   *******   ****        
                     ****     ****       ****  ****        
                     ****     **** **********  ****        
                      ****     **** ********    ****       
                     FRONTIERS IN SIMULATION TECHNOLOGY    
                                                           
                        C.J. Mundy, S. Balasubramanian,    
                     Ken Bagchi, J. Hutter, Ari Seitsonen  
                      IFW Kuo, T. Laino, J. VandeVondele   
                                 Version 1.0               

                                                           


 EWALD| Summation is done by:                                               SPME
 EWALD| Alpha parameter [       ANGSTROM^-1]                              0.4000
 EWALD| Real Space Cutoff [          ANGSTROM]                            8.4348
 EWALD| G-space max. Miller index                         80        80        80
 EWALD| Spline interpolation order                                             6

 *** WARNING in topology_amber.F:235 :: No VELOCITY information found in ***
 *** CRD file. Ignoring BOX information. Please provide the BOX          ***
 *** information directly from the main CP2K input!                      ***


 *** WARNING in topology_amber.F:260 :: BOX information missing in CRD ***
 *** file.                                                             ***


 FORCEFIELD| WARNING: A non Critical ForceField parameter is missing! CP2K GOES!
 FORCEFIELD| Non critical parameters are:Urey-Bradley,Torsions,Impropers, Opbends and 1-4
 FORCEFIELD| All missing parameters will not contribute to the potential energy!
 FORCEFIELD| Activate the print key FF_INFO to have a list of missing parameters

 CHARGE_INFO| Total Charge of the Classical System:                     0.000000

 SPLINE_INFO| Generating 55 splines for NONBONDED14 interactions 
              Due to 10 different atomic kinds
  ...5  ...10  ...15  ...20  ...25  ...30  ...35  ...40  ...45  ...50  ...55

 SPLINE_INFO| Number of unique splines computed:            45
 SPLINE_INFO| Done

 SPLINE_INFO| Generating 55 splines for NONBONDED interactions 
              Due to 10 different atomic kinds
  ...5  ...10  ...15  ...20  ...25  ...30  ...35  ...40  ...45  ...50  ...55

 SPLINE_INFO| Number of unique splines computed:            45
 SPLINE_INFO| Done

 *******************************************************************************
 ***                     STARTING GEOMETRY OPTIMIZATION                      ***
 ***                                 L-BFGS                                  ***
 *******************************************************************************

 --------------------------
 OPTIMIZATION STEP:      1
 --------------------------

 ENERGY| Total FORCE_EVAL ( FIST ) energy (a.u.):             47.373201386994566


 ENERGY| Total FORCE_EVAL ( FIST ) energy (a.u.):            -18.626166158663992


 --------  Informations at step =     1 ------------
  Optimization Method        =                LBFGS
  Total Energy               =       -18.6261661587
  Real energy change         =       -65.9993675457
  Decrease in energy         =                  YES
  Used time                  =                0.701

  Convergence check :
  Max. step size             =         0.6198436351
  Conv. limit for step size  =         0.0100000000
  Convergence in step size   =                   NO
  RMS step size              =         0.0087237320
  Conv. limit for RMS step   =         0.0050000000
  Convergence in RMS step    =                   NO
  Max. gradient              =         0.6145351825
  Conv. limit for gradients  =         0.0100000000
  Conv. for gradients        =                   NO
  RMS gradient               =         0.0134268076
  Conv. limit for RMS grad.  =         0.0050000000
  Conv. for gradients        =                   NO
 ---------------------------------------------------

 --------------------------
 OPTIMIZATION STEP:      2
 --------------------------

 ENERGY| Total FORCE_EVAL ( FIST ) energy (a.u.):            -18.631294548191033


 ENERGY| Total FORCE_EVAL ( FIST ) energy (a.u.):            -18.651502604213402


 ENERGY| Total FORCE_EVAL ( FIST ) energy (a.u.):            -18.727730317352712


 --------  Informations at step =     2 ------------
  Optimization Method        =                LBFGS
  Total Energy               =       -18.7277303174
  Real energy change         =        -0.1015641587
  Decrease in energy         =                  YES
  Used time                  =                0.508

  Convergence check :
  Max. step size             =         0.0280414502
  Conv. limit for step size  =         0.0100000000
  Convergence in step size   =                   NO
  RMS step size              =         0.0006122709
  Conv. limit for RMS step   =         0.0050000000
  Convergence in RMS step    =                  YES
  Max. gradient              =         0.4688195156
  Conv. limit for gradients  =         0.0100000000
  Conv. for gradients        =                   NO
  RMS gradient               =         0.0119486896
  Conv. limit for RMS grad.  =         0.0050000000
  Conv. for gradients        =                   NO
 ---------------------------------------------------

 --------------------------
 OPTIMIZATION STEP:      3
 --------------------------

 ENERGY| Total FORCE_EVAL ( FIST ) energy (a.u.):            -19.366203341480968


 --------  Informations at step =     3 ------------
  Optimization Method        =                LBFGS
  Total Energy               =       -19.3662033415
  Real energy change         =        -0.6384730241
  Decrease in energy         =                  YES
  Used time                  =                0.419

  Convergence check :
  Max. step size             =         0.2009515391
  Conv. limit for step size  =         0.0100000000
  Convergence in step size   =                   NO
  RMS step size              =         0.0057546851
  Conv. limit for RMS step   =         0.0050000000
  Convergence in RMS step    =                   NO
  Max. gradient              =         0.1493135914
  Conv. limit for gradients  =         0.0100000000
  Conv. for gradients        =                   NO
  RMS gradient               =         0.0069733602
  Conv. limit for RMS grad.  =         0.0050000000
  Conv. for gradients        =                   NO
 ---------------------------------------------------

 --------------------------
 OPTIMIZATION STEP:      4
 --------------------------

 ENERGY| Total FORCE_EVAL ( FIST ) energy (a.u.):            -19.859248775132521


 --------  Informations at step =     4 ------------
  Optimization Method        =                LBFGS
  Total Energy               =       -19.8592487751
  Real energy change         =        -0.4930454337
  Decrease in energy         =                  YES
  Used time                  =                0.168

  Convergence check :
  Max. step size             =         0.1830318008
  Conv. limit for step size  =         0.0100000000
  Convergence in step size   =                   NO
  RMS step size              =         0.0076721704
  Conv. limit for RMS step   =         0.0050000000
  Convergence in RMS step    =                   NO
  Max. gradient              =         0.1230724299
  Conv. limit for gradients  =         0.0100000000
  Conv. for gradients        =                   NO
  RMS gradient               =         0.0049870995
  Conv. limit for RMS grad.  =         0.0050000000
  Conv. in RMS gradients     =                  YES
 ---------------------------------------------------

 --------------------------
 OPTIMIZATION STEP:      5
 --------------------------

 ENERGY| Total FORCE_EVAL ( FIST ) energy (a.u.):            -20.332396452257143


 --------  Informations at step =     5 ------------
  Optimization Method        =                LBFGS
  Total Energy               =       -20.3323964523
  Real energy change         =        -0.4731476771
  Decrease in energy         =                  YES
  Used time                  =                0.169

  Convergence check :
  Max. step size             =         0.3281831694
  Conv. limit for step size  =         0.0100000000
  Convergence in step size   =                   NO
  RMS step size              =         0.0136283378
  Conv. limit for RMS step   =         0.0050000000
  Convergence in RMS step    =                   NO
  Max. gradient              =         0.1444484273
  Conv. limit for gradients  =         0.0100000000
  Conv. for gradients        =                   NO
  RMS gradient               =         0.0035958438
  Conv. limit for RMS grad.  =         0.0050000000
  Conv. in RMS gradients     =                  YES
 ---------------------------------------------------

 --------------------------
 OPTIMIZATION STEP:      6
 --------------------------

 ENERGY| Total FORCE_EVAL ( FIST ) energy (a.u.):            -20.689176320351692


 --------  Informations at step =     6 ------------
  Optimization Method        =                LBFGS
  Total Energy               =       -20.6891763204
  Real energy change         =        -0.3567798681
  Decrease in energy         =                  YES
  Used time                  =                0.420

  Convergence check :
  Max. step size             =         0.4654875770
  Conv. limit for step size  =         0.0100000000
  Convergence in step size   =                   NO
  RMS step size              =         0.0158160490
  Conv. limit for RMS step   =         0.0050000000
  Convergence in RMS step    =                   NO
  Max. gradient              =         0.0838967367
  Conv. limit for gradients  =         0.0100000000
  Conv. for gradients        =                   NO
  RMS gradient               =         0.0045719026
  Conv. limit for RMS grad.  =         0.0050000000
  Conv. in RMS gradients     =                  YES
 ---------------------------------------------------

 --------------------------
 OPTIMIZATION STEP:      7
 --------------------------

 ENERGY| Total FORCE_EVAL ( FIST ) energy (a.u.):            -21.118721896919361


 --------  Informations at step =     7 ------------
  Optimization Method        =                LBFGS
  Total Energy               =       -21.1187218969
  Real energy change         =        -0.4295455766
  Decrease in energy         =                  YES
  Used time                  =                0.169

  Convergence check :
  Max. step size             =         0.5514652893
  Conv. limit for step size  =         0.0100000000
  Convergence in step size   =                   NO
  RMS step size              =         0.0199740708
  Conv. limit for RMS step   =         0.0050000000
  Convergence in RMS step    =                   NO
  Max. gradient              =         0.1347248895
  Conv. limit for gradients  =         0.0100000000
  Conv. for gradients        =                   NO
  RMS gradient               =         0.0047026028
  Conv. limit for RMS grad.  =         0.0050000000
  Conv. in RMS gradients     =                  YES
 ---------------------------------------------------

 --------------------------
 OPTIMIZATION STEP:      8
 --------------------------

 ENERGY| Total FORCE_EVAL ( FIST ) energy (a.u.):            -21.677502729665726


 --------  Informations at step =     8 ------------
  Optimization Method        =                LBFGS
  Total Energy               =       -21.6775027297
  Real energy change         =        -0.5587808327
  Decrease in energy         =                  YES
  Used time                  =                0.418

  Convergence check :
  Max. step size             =         0.7066939488
  Conv. limit for step size  =         0.0100000000
  Convergence in step size   =                   NO
  RMS step size              =         0.0436306629
  Conv. limit for RMS step   =         0.0050000000
  Convergence in RMS step    =                   NO
  Max. gradient              =         0.2074966465
  Conv. limit for gradients  =         0.0100000000
  Conv. for gradients        =                   NO
  RMS gradient               =         0.0074253611
  Conv. limit for RMS grad.  =         0.0050000000
  Conv. for gradients        =                   NO
 ---------------------------------------------------

 --------------------------
 OPTIMIZATION STEP:      9
 --------------------------

 ENERGY| Total FORCE_EVAL ( FIST ) energy (a.u.):            -22.178578771791035


 --------  Informations at step =     9 ------------
  Optimization Method        =                LBFGS
  Total Energy               =       -22.1785787718
  Real energy change         =        -0.5010760421
  Decrease in energy         =                  YES
  Used time                  =                0.169

  Convergence check :
  Max. step size             =         0.2981559023
  Conv. limit for step size  =         0.0100000000
  Convergence in step size   =                   NO
  RMS step size              =         0.0182986954
  Conv. limit for RMS step   =         0.0050000000
  Convergence in RMS step    =                   NO
  Max. gradient              =         0.0953408197
  Conv. limit for gradients  =         0.0100000000
  Conv. for gradients        =                   NO
  RMS gradient               =         0.0032296197
  Conv. limit for RMS grad.  =         0.0050000000
  Conv. in RMS gradients     =                  YES
 ---------------------------------------------------

 --------------------------
 OPTIMIZATION STEP:     10
 --------------------------

 ENERGY| Total FORCE_EVAL ( FIST ) energy (a.u.):            -22.329243536112894


 --------  Informations at step =    10 ------------
  Optimization Method        =                LBFGS
  Total Energy               =       -22.3292435361
  Real energy change         =        -0.1506647643
  Decrease in energy         =                  YES
  Used time                  =                0.169

  Convergence check :
  Max. step size             =         0.1569081324
  Conv. limit for step size  =         0.0100000000
  Convergence in step size   =                   NO
  RMS step size              =         0.0116807987
  Conv. limit for RMS step   =         0.0050000000
  Convergence in RMS step    =                   NO
  Max. gradient              =         0.0787027065
  Conv. limit for gradients  =         0.0100000000
  Conv. for gradients        =                   NO
  RMS gradient               =         0.0024548905
  Conv. limit for RMS grad.  =         0.0050000000
  Conv. in RMS gradients     =                  YES
 ---------------------------------------------------

 --------------------------
 OPTIMIZATION STEP:     11
 --------------------------

 ENERGY| Total FORCE_EVAL ( FIST ) energy (a.u.):            -22.534429607960092


 --------  Informations at step =    11 ------------
  Optimization Method        =                LBFGS
  Total Energy               =       -22.5344296080
  Real energy change         =        -0.2051860718
  Decrease in energy         =                  YES
  Used time                  =                0.168

  Convergence check :
  Max. step size             =         0.3784193809
  Conv. limit for step size  =         0.0100000000
  Convergence in step size   =                   NO
  RMS step size              =         0.0279496291
  Conv. limit for RMS step   =         0.0050000000
  Convergence in RMS step    =                   NO
  Max. gradient              =         0.0493726284
  Conv. limit for gradients  =         0.0100000000
  Conv. for gradients        =                   NO
  RMS gradient               =         0.0027136066
  Conv. limit for RMS grad.  =         0.0050000000
  Conv. in RMS gradients     =                  YES
 ---------------------------------------------------

 --------------------------
 OPTIMIZATION STEP:     12
 --------------------------

 ENERGY| Total FORCE_EVAL ( FIST ) energy (a.u.):            -22.656807494637423


 --------  Informations at step =    12 ------------
  Optimization Method        =                LBFGS
  Total Energy               =       -22.6568074946
  Real energy change         =        -0.1223778867
  Decrease in energy         =                  YES
  Used time                  =                0.417

  Convergence check :
  Max. step size             =         0.2491691616
  Conv. limit for step size  =         0.0100000000
  Convergence in step size   =                   NO
  RMS step size              =         0.0173298962
  Conv. limit for RMS step   =         0.0050000000
  Convergence in RMS step    =                   NO
  Max. gradient              =         0.0469088660
  Conv. limit for gradients  =         0.0100000000
  Conv. for gradients        =                   NO
  RMS gradient               =         0.0036157063
  Conv. limit for RMS grad.  =         0.0050000000
  Conv. in RMS gradients     =                  YES
 ---------------------------------------------------

 --------------------------
 OPTIMIZATION STEP:     13
 --------------------------

 ENERGY| Total FORCE_EVAL ( FIST ) energy (a.u.):            -22.797580391709072


 --------  Informations at step =    13 ------------
  Optimization Method        =                LBFGS
  Total Energy               =       -22.7975803917
  Real energy change         =        -0.1407728971
  Decrease in energy         =                  YES
  Used time                  =                0.170

  Convergence check :
  Max. step size             =         0.1443704555
  Conv. limit for step size  =         0.0100000000
  Convergence in step size   =                   NO
  RMS step size              =         0.0078586700
  Conv. limit for RMS step   =         0.0050000000
  Convergence in RMS step    =                   NO
  Max. gradient              =         0.0601040298
  Conv. limit for gradients  =         0.0100000000
  Conv. for gradients        =                   NO
  RMS gradient               =         0.0028704238
  Conv. limit for RMS grad.  =         0.0050000000
  Conv. in RMS gradients     =                  YES
 ---------------------------------------------------

 --------------------------
 OPTIMIZATION STEP:     14
 --------------------------

 ENERGY| Total FORCE_EVAL ( FIST ) energy (a.u.):            -23.021452366926837


 --------  Informations at step =    14 ------------
  Optimization Method        =                LBFGS
  Total Energy               =       -23.0214523669
  Real energy change         =        -0.2238719752
  Decrease in energy         =                  YES
  Used time                  =                0.169

  Convergence check :
  Max. step size             =         0.2851201222
  Conv. limit for step size  =         0.0100000000
  Convergence in step size   =                   NO
  RMS step size              =         0.0234411351
  Conv. limit for RMS step   =         0.0050000000
  Convergence in RMS step    =                   NO
  Max. gradient              =         0.0786613049
  Conv. limit for gradients  =         0.0100000000
  Conv. for gradients        =                   NO
  RMS gradient               =         0.0027673973
  Conv. limit for RMS grad.  =         0.0050000000
  Conv. in RMS gradients     =                  YES
 ---------------------------------------------------

 --------------------------
 OPTIMIZATION STEP:     15
 --------------------------

 ENERGY| Total FORCE_EVAL ( FIST ) energy (a.u.):            -23.190394758306290


 --------  Informations at step =    15 ------------
  Optimization Method        =                LBFGS
  Total Energy               =       -23.1903947583
  Real energy change         =        -0.1689423914
  Decrease in energy         =                  YES
  Used time                  =                0.169

  Convergence check :
  Max. step size             =         0.1898654101
  Conv. limit for step size  =         0.0100000000
  Convergence in step size   =                   NO
  RMS step size              =         0.0262395741
  Conv. limit for RMS step   =         0.0050000000
  Convergence in RMS step    =                   NO
  Max. gradient              =         0.0862245018
  Conv. limit for gradients  =         0.0100000000
  Conv. for gradients        =                   NO
  RMS gradient               =         0.0031573416
  Conv. limit for RMS grad.  =         0.0050000000
  Conv. in RMS gradients     =                  YES
 ---------------------------------------------------

 --------------------------
 OPTIMIZATION STEP:     16
 --------------------------

 ENERGY| Total FORCE_EVAL ( FIST ) energy (a.u.):            -23.314613344771221


 --------  Informations at step =    16 ------------
  Optimization Method        =                LBFGS
  Total Energy               =       -23.3146133448
  Real energy change         =        -0.1242185865
  Decrease in energy         =                  YES
  Used time                  =                0.169

  Convergence check :
  Max. step size             =         0.1964909879
  Conv. limit for step size  =         0.0100000000
  Convergence in step size   =                   NO
  RMS step size              =         0.0168712086
  Conv. limit for RMS step   =         0.0050000000
  Convergence in RMS step    =                   NO
  Max. gradient              =         0.0576312184
  Conv. limit for gradients  =         0.0100000000
  Conv. for gradients        =                   NO
  RMS gradient               =         0.0025146542
  Conv. limit for RMS grad.  =         0.0050000000
  Conv. in RMS gradients     =                  YES
 ---------------------------------------------------

 --------------------------
 OPTIMIZATION STEP:     17
 --------------------------

 ENERGY| Total FORCE_EVAL ( FIST ) energy (a.u.):            -23.415667406878448


 --------  Informations at step =    17 ------------
  Optimization Method        =                LBFGS
  Total Energy               =       -23.4156674069
  Real energy change         =        -0.1010540621
  Decrease in energy         =                  YES
  Used time                  =                0.169

  Convergence check :
  Max. step size             =         0.1463175566
  Conv. limit for step size  =         0.0100000000
  Convergence in step size   =                   NO
  RMS step size              =         0.0074811649
  Conv. limit for RMS step   =         0.0050000000
  Convergence in RMS step    =                   NO
  Max. gradient              =         0.0376871634
  Conv. limit for gradients  =         0.0100000000
  Conv. for gradients        =                   NO
  RMS gradient               =         0.0019599239
  Conv. limit for RMS grad.  =         0.0050000000
  Conv. in RMS gradients     =                  YES
 ---------------------------------------------------

 --------------------------
 OPTIMIZATION STEP:     18
 --------------------------

 ENERGY| Total FORCE_EVAL ( FIST ) energy (a.u.):            -23.518330385736022


 --------  Informations at step =    18 ------------
  Optimization Method        =                LBFGS
  Total Energy               =       -23.5183303857
  Real energy change         =        -0.1026629789
  Decrease in energy         =                  YES
  Used time                  =                0.169

  Convergence check :
  Max. step size             =         0.2508673217
  Conv. limit for step size  =         0.0100000000
  Convergence in step size   =                   NO
  RMS step size              =         0.0200725629
  Conv. limit for RMS step   =         0.0050000000
  Convergence in RMS step    =                   NO
  Max. gradient              =         0.0581223666
  Conv. limit for gradients  =         0.0100000000
  Conv. for gradients        =                   NO
  RMS gradient               =         0.0033459735
  Conv. limit for RMS grad.  =         0.0050000000
  Conv. in RMS gradients     =                  YES
 ---------------------------------------------------

 --------------------------
 OPTIMIZATION STEP:     19
 --------------------------

 ENERGY| Total FORCE_EVAL ( FIST ) energy (a.u.):            -23.605328507654267


 --------  Informations at step =    19 ------------
  Optimization Method        =                LBFGS
  Total Energy               =       -23.6053285077
  Real energy change         =        -0.0869981219
  Decrease in energy         =                  YES
  Used time                  =                0.172

  Convergence check :
  Max. step size             =         0.2003634383
  Conv. limit for step size  =         0.0100000000
  Convergence in step size   =                   NO
  RMS step size              =         0.0083749725
  Conv. limit for RMS step   =         0.0050000000
  Convergence in RMS step    =                   NO
  Max. gradient              =         0.0630767364
  Conv. limit for gradients  =         0.0100000000
  Conv. for gradients        =                   NO
  RMS gradient               =         0.0020650725
  Conv. limit for RMS grad.  =         0.0050000000
  Conv. in RMS gradients     =                  YES
 ---------------------------------------------------

 --------------------------
 OPTIMIZATION STEP:     20
 --------------------------

 ENERGY| Total FORCE_EVAL ( FIST ) energy (a.u.):            -23.668932801934616


 --------  Informations at step =    20 ------------
  Optimization Method        =                LBFGS
  Total Energy               =       -23.6689328019
  Real energy change         =        -0.0636042943
  Decrease in energy         =                  YES
  Used time                  =                0.429

  Convergence check :
  Max. step size             =         0.0817654144
  Conv. limit for step size  =         0.0100000000
  Convergence in step size   =                   NO
  RMS step size              =         0.0069764643
  Conv. limit for RMS step   =         0.0050000000
  Convergence in RMS step    =                   NO
  Max. gradient              =         0.0475881804
  Conv. limit for gradients  =         0.0100000000
  Conv. for gradients        =                   NO
  RMS gradient               =         0.0016050556
  Conv. limit for RMS grad.  =         0.0050000000
  Conv. in RMS gradients     =                  YES
 ---------------------------------------------------

 --------------------------
 OPTIMIZATION STEP:     21
 --------------------------

 ENERGY| Total FORCE_EVAL ( FIST ) energy (a.u.):            -23.780182072935990


 --------  Informations at step =    21 ------------
  Optimization Method        =                LBFGS
  Total Energy               =       -23.7801820729
  Real energy change         =        -0.1112492710
  Decrease in energy         =                  YES
  Used time                  =                0.174

  Convergence check :
  Max. step size             =         0.1653022931
  Conv. limit for step size  =         0.0100000000
  Convergence in step size   =                   NO
  RMS step size              =         0.0227089014
  Conv. limit for RMS step   =         0.0050000000
  Convergence in RMS step    =                   NO
  Max. gradient              =         0.0327356906
  Conv. limit for gradients  =         0.0100000000
  Conv. for gradients        =                   NO
  RMS gradient               =         0.0017434179
  Conv. limit for RMS grad.  =         0.0050000000
  Conv. in RMS gradients     =                  YES
 ---------------------------------------------------

 --------------------------
 OPTIMIZATION STEP:     22
 --------------------------

 ENERGY| Total FORCE_EVAL ( FIST ) energy (a.u.):            -23.895941778930002


 --------  Informations at step =    22 ------------
  Optimization Method        =                LBFGS
  Total Energy               =       -23.8959417789
  Real energy change         =        -0.1157597060
  Decrease in energy         =                  YES
  Used time                  =                0.170

  Convergence check :
  Max. step size             =         0.2085285193
  Conv. limit for step size  =         0.0100000000
  Convergence in step size   =                   NO
  RMS step size              =         0.0268367698
  Conv. limit for RMS step   =         0.0050000000
  Convergence in RMS step    =                   NO
  Max. gradient              =         0.0631263050
  Conv. limit for gradients  =         0.0100000000
  Conv. for gradients        =                   NO
  RMS gradient               =         0.0031202772
  Conv. limit for RMS grad.  =         0.0050000000
  Conv. in RMS gradients     =                  YES
 ---------------------------------------------------

 --------------------------
 OPTIMIZATION STEP:     23
 --------------------------

 ENERGY| Total FORCE_EVAL ( FIST ) energy (a.u.):            -24.005966574695439


 --------  Informations at step =    23 ------------
  Optimization Method        =                LBFGS
  Total Energy               =       -24.0059665747
  Real energy change         =        -0.1100247958
  Decrease in energy         =                  YES
  Used time                  =                0.174

  Convergence check :
  Max. step size             =         0.2325106186
  Conv. limit for step size  =         0.0100000000
  Convergence in step size   =                   NO
  RMS step size              =         0.0184529182
  Conv. limit for RMS step   =         0.0050000000
  Convergence in RMS step    =                   NO
  Max. gradient              =         0.0775329462
  Conv. limit for gradients  =         0.0100000000
  Conv. for gradients        =                   NO
  RMS gradient               =         0.0020467218
  Conv. limit for RMS grad.  =         0.0050000000
  Conv. in RMS gradients     =                  YES
 ---------------------------------------------------

 --------------------------
 OPTIMIZATION STEP:     24
 --------------------------

 ENERGY| Total FORCE_EVAL ( FIST ) energy (a.u.):            -24.067063829444919


 --------  Informations at step =    24 ------------
  Optimization Method        =                LBFGS
  Total Energy               =       -24.0670638294
  Real energy change         =        -0.0610972547
  Decrease in energy         =                  YES
  Used time                  =                0.170

  Convergence check :
  Max. step size             =         0.0568244996
  Conv. limit for step size  =         0.0100000000
  Convergence in step size   =                   NO
  RMS step size              =         0.0062272449
  Conv. limit for RMS step   =         0.0050000000
  Convergence in RMS step    =                   NO
  Max. gradient              =         0.0611208744
  Conv. limit for gradients  =         0.0100000000
  Conv. for gradients        =                   NO
  RMS gradient               =         0.0016115368
  Conv. limit for RMS grad.  =         0.0050000000
  Conv. in RMS gradients     =                  YES
 ---------------------------------------------------

 --------------------------
 OPTIMIZATION STEP:     25
 --------------------------

 ENERGY| Total FORCE_EVAL ( FIST ) energy (a.u.):            -24.140746481512600


 --------  Informations at step =    25 ------------
  Optimization Method        =                LBFGS
  Total Energy               =       -24.1407464815
  Real energy change         =        -0.0736826521
  Decrease in energy         =                  YES
  Used time                  =                0.172

  Convergence check :
  Max. step size             =         0.1609740339
  Conv. limit for step size  =         0.0100000000
  Convergence in step size   =                   NO
  RMS step size              =         0.0129863387
  Conv. limit for RMS step   =         0.0050000000
  Convergence in RMS step    =                   NO
  Max. gradient              =         0.0412552199
  Conv. limit for gradients  =         0.0100000000
  Conv. for gradients        =                   NO
  RMS gradient               =         0.0015508037
  Conv. limit for RMS grad.  =         0.0050000000
  Conv. in RMS gradients     =                  YES
 ---------------------------------------------------

 --------------------------
 OPTIMIZATION STEP:     26
 --------------------------

 ENERGY| Total FORCE_EVAL ( FIST ) energy (a.u.):            -24.202270318925414


 --------  Informations at step =    26 ------------
  Optimization Method        =                LBFGS
  Total Energy               =       -24.2022703189
  Real energy change         =        -0.0615238374
  Decrease in energy         =                  YES
  Used time                  =                0.170

  Convergence check :
  Max. step size             =         0.1984959926
  Conv. limit for step size  =         0.0100000000
  Convergence in step size   =                   NO
  RMS step size              =         0.0138523236
  Conv. limit for RMS step   =         0.0050000000
  Convergence in RMS step    =                   NO
  Max. gradient              =         0.0321542735
  Conv. limit for gradients  =         0.0100000000
  Conv. for gradients        =                   NO
  RMS gradient               =         0.0018693354
  Conv. limit for RMS grad.  =         0.0050000000
  Conv. in RMS gradients     =                  YES
 ---------------------------------------------------

 --------------------------
 OPTIMIZATION STEP:     27
 --------------------------

 ENERGY| Total FORCE_EVAL ( FIST ) energy (a.u.):            -24.268327232117873


 --------  Informations at step =    27 ------------
  Optimization Method        =                LBFGS
  Total Energy               =       -24.2683272321
  Real energy change         =        -0.0660569132
  Decrease in energy         =                  YES
  Used time                  =                0.195

  Convergence check :
  Max. step size             =         0.1142715709
  Conv. limit for step size  =         0.0100000000
  Convergence in step size   =                   NO
  RMS step size              =         0.0150237777
  Conv. limit for RMS step   =         0.0050000000
  Convergence in RMS step    =                   NO
  Max. gradient              =         0.0362852865
  Conv. limit for gradients  =         0.0100000000
  Conv. for gradients        =                   NO
  RMS gradient               =         0.0015847745
  Conv. limit for RMS grad.  =         0.0050000000
  Conv. in RMS gradients     =                  YES
 ---------------------------------------------------

 --------------------------
 OPTIMIZATION STEP:     28
 --------------------------

 ENERGY| Total FORCE_EVAL ( FIST ) energy (a.u.):            -24.370164877308504


 --------  Informations at step =    28 ------------
  Optimization Method        =                LBFGS
  Total Energy               =       -24.3701648773
  Real energy change         =        -0.1018376452
  Decrease in energy         =                  YES
  Used time                  =                0.183

  Convergence check :
  Max. step size             =         0.2025002501
  Conv. limit for step size  =         0.0100000000
  Convergence in step size   =                   NO
  RMS step size              =         0.0275983273
  Conv. limit for RMS step   =         0.0050000000
  Convergence in RMS step    =                   NO
  Max. gradient              =         0.0651477221
  Conv. limit for gradients  =         0.0100000000
  Conv. for gradients        =                   NO
  RMS gradient               =         0.0021348460
  Conv. limit for RMS grad.  =         0.0050000000
  Conv. in RMS gradients     =                  YES
 ---------------------------------------------------

 --------------------------
 OPTIMIZATION STEP:     29
 --------------------------

 ENERGY| Total FORCE_EVAL ( FIST ) energy (a.u.):            -24.447599949159358


 --------  Informations at step =    29 ------------
  Optimization Method        =                LBFGS
  Total Energy               =       -24.4475999492
  Real energy change         =        -0.0774350719
  Decrease in energy         =                  YES
  Used time                  =                0.177

  Convergence check :
  Max. step size             =         0.1213602307
  Conv. limit for step size  =         0.0100000000
  Convergence in step size   =                   NO
  RMS step size              =         0.0196739033
  Conv. limit for RMS step   =         0.0050000000
  Convergence in RMS step    =                   NO
  Max. gradient              =         0.0465956685
  Conv. limit for gradients  =         0.0100000000
  Conv. for gradients        =                   NO
  RMS gradient               =         0.0026292260
  Conv. limit for RMS grad.  =         0.0050000000
  Conv. in RMS gradients     =                  YES
 ---------------------------------------------------

 --------------------------
 OPTIMIZATION STEP:     30
 --------------------------

 ENERGY| Total FORCE_EVAL ( FIST ) energy (a.u.):            -24.531827857344471


 --------  Informations at step =    30 ------------
  Optimization Method        =                LBFGS
  Total Energy               =       -24.5318278573
  Real energy change         =        -0.0842279082
  Decrease in energy         =                  YES
  Used time                  =                0.192

  Convergence check :
  Max. step size             =         0.0860235408
  Conv. limit for step size  =         0.0100000000
  Convergence in step size   =                   NO
  RMS step size              =         0.0153208837
  Conv. limit for RMS step   =         0.0050000000
  Convergence in RMS step    =                   NO
  Max. gradient              =         0.0491696212
  Conv. limit for gradients  =         0.0100000000
  Conv. for gradients        =                   NO
  RMS gradient               =         0.0014034349
  Conv. limit for RMS grad.  =         0.0050000000
  Conv. in RMS gradients     =                  YES
 ---------------------------------------------------

 --------------------------
 OPTIMIZATION STEP:     31
 --------------------------

 ENERGY| Total FORCE_EVAL ( FIST ) energy (a.u.):            -24.582879933177058


 --------  Informations at step =    31 ------------
  Optimization Method        =                LBFGS
  Total Energy               =       -24.5828799332
  Real energy change         =        -0.0510520758
  Decrease in energy         =                  YES
  Used time                  =                0.453

  Convergence check :
  Max. step size             =         0.0691414778
  Conv. limit for step size  =         0.0100000000
  Convergence in step size   =                   NO
  RMS step size              =         0.0109195543
  Conv. limit for RMS step   =         0.0050000000
  Convergence in RMS step    =                   NO
  Max. gradient              =         0.0351090069
  Conv. limit for gradients  =         0.0100000000
  Conv. for gradients        =                   NO
  RMS gradient               =         0.0013735752
  Conv. limit for RMS grad.  =         0.0050000000
  Conv. in RMS gradients     =                  YES
 ---------------------------------------------------

 --------------------------
 OPTIMIZATION STEP:     32
 --------------------------

 ENERGY| Total FORCE_EVAL ( FIST ) energy (a.u.):            -24.653136837325139


 --------  Informations at step =    32 ------------
  Optimization Method        =                LBFGS
  Total Energy               =       -24.6531368373
  Real energy change         =        -0.0702569041
  Decrease in energy         =                  YES
  Used time                  =                0.192

  Convergence check :
  Max. step size             =         0.1608915866
  Conv. limit for step size  =         0.0100000000
  Convergence in step size   =                   NO
  RMS step size              =         0.0237034041
  Conv. limit for RMS step   =         0.0050000000
  Convergence in RMS step    =                   NO
  Max. gradient              =         0.0200087496
  Conv. limit for gradients  =         0.0100000000
  Conv. for gradients        =                   NO
  RMS gradient               =         0.0016467770
  Conv. limit for RMS grad.  =         0.0050000000
  Conv. in RMS gradients     =                  YES
 ---------------------------------------------------

 --------------------------
 OPTIMIZATION STEP:     33
 --------------------------

 ENERGY| Total FORCE_EVAL ( FIST ) energy (a.u.):            -24.686839064662610


 --------  Informations at step =    33 ------------
  Optimization Method        =                LBFGS
  Total Energy               =       -24.6868390647
  Real energy change         =        -0.0337022273
  Decrease in energy         =                  YES
  Used time                  =                0.186

  Convergence check :
  Max. step size             =         0.2376049062
  Conv. limit for step size  =         0.0100000000
  Convergence in step size   =                   NO
  RMS step size              =         0.0226609372
  Conv. limit for RMS step   =         0.0050000000
  Convergence in RMS step    =                   NO
  Max. gradient              =         0.0431761678
  Conv. limit for gradients  =         0.0100000000
  Conv. for gradients        =                   NO
  RMS gradient               =         0.0033100241
  Conv. limit for RMS grad.  =         0.0050000000
  Conv. in RMS gradients     =                  YES
 ---------------------------------------------------

 --------------------------
 OPTIMIZATION STEP:     34
 --------------------------

 ENERGY| Total FORCE_EVAL ( FIST ) energy (a.u.):            -24.751643556117020


 --------  Informations at step =    34 ------------
  Optimization Method        =                LBFGS
  Total Energy               =       -24.7516435561
  Real energy change         =        -0.0648044915
  Decrease in energy         =                  YES
  Used time                  =                0.183

  Convergence check :
  Max. step size             =         0.0284511490
  Conv. limit for step size  =         0.0100000000
  Convergence in step size   =                   NO
  RMS step size              =         0.0032303249
  Conv. limit for RMS step   =         0.0050000000
  Convergence in RMS step    =                  YES
  Max. gradient              =         0.0392719881
  Conv. limit for gradients  =         0.0100000000
  Conv. for gradients        =                   NO
  RMS gradient               =         0.0014909336
  Conv. limit for RMS grad.  =         0.0050000000
  Conv. in RMS gradients     =                  YES
 ---------------------------------------------------

 --------------------------
 OPTIMIZATION STEP:     35
 --------------------------

 ENERGY| Total FORCE_EVAL ( FIST ) energy (a.u.):            -24.803865134002724


 --------  Informations at step =    35 ------------
  Optimization Method        =                LBFGS
  Total Energy               =       -24.8038651340
  Real energy change         =        -0.0522215779
  Decrease in energy         =                  YES
  Used time                  =                0.190

  Convergence check :
  Max. step size             =         0.0746019059
  Conv. limit for step size  =         0.0100000000
  Convergence in step size   =                   NO
  RMS step size              =         0.0048863099
  Conv. limit for RMS step   =         0.0050000000
  Convergence in RMS step    =                  YES
  Max. gradient              =         0.0311176634
  Conv. limit for gradients  =         0.0100000000
  Conv. for gradients        =                   NO
  RMS gradient               =         0.0012817569
  Conv. limit for RMS grad.  =         0.0050000000
  Conv. in RMS gradients     =                  YES
 ---------------------------------------------------

 --------------------------
 OPTIMIZATION STEP:     36
 --------------------------

 ENERGY| Total FORCE_EVAL ( FIST ) energy (a.u.):            -24.860029611715742


 --------  Informations at step =    36 ------------
  Optimization Method        =                LBFGS
  Total Energy               =       -24.8600296117
  Real energy change         =        -0.0561644777
  Decrease in energy         =                  YES
  Used time                  =                0.184

  Convergence check :
  Max. step size             =         0.0717074552
  Conv. limit for step size  =         0.0100000000
  Convergence in step size   =                   NO
  RMS step size              =         0.0118175833
  Conv. limit for RMS step   =         0.0050000000
  Convergence in RMS step    =                   NO
  Max. gradient              =         0.0295779607
  Conv. limit for gradients  =         0.0100000000
  Conv. for gradients        =                   NO
  RMS gradient               =         0.0019190333
  Conv. limit for RMS grad.  =         0.0050000000
  Conv. in RMS gradients     =                  YES
 ---------------------------------------------------

 --------------------------
 OPTIMIZATION STEP:     37
 --------------------------

 ENERGY| Total FORCE_EVAL ( FIST ) energy (a.u.):            -24.938097690574107


 --------  Informations at step =    37 ------------
  Optimization Method        =                LBFGS
  Total Energy               =       -24.9380976906
  Real energy change         =        -0.0780680789
  Decrease in energy         =                  YES
  Used time                  =                0.181

  Convergence check :
  Max. step size             =         0.1705584831
  Conv. limit for step size  =         0.0100000000
  Convergence in step size   =                   NO
  RMS step size              =         0.0228609202
  Conv. limit for RMS step   =         0.0050000000
  Convergence in RMS step    =                   NO
  Max. gradient              =         0.0380760194
  Conv. limit for gradients  =         0.0100000000
  Conv. for gradients        =                   NO
  RMS gradient               =         0.0025996480
  Conv. limit for RMS grad.  =         0.0050000000
  Conv. in RMS gradients     =                  YES
 ---------------------------------------------------

 --------------------------
 OPTIMIZATION STEP:     38
 --------------------------

 ENERGY| Total FORCE_EVAL ( FIST ) energy (a.u.):            -25.001352324248618


 --------  Informations at step =    38 ------------
  Optimization Method        =                LBFGS
  Total Energy               =       -25.0013523242
  Real energy change         =        -0.0632546337
  Decrease in energy         =                  YES
  Used time                  =                0.195

  Convergence check :
  Max. step size             =         0.0968163393
  Conv. limit for step size  =         0.0100000000
  Convergence in step size   =                   NO
  RMS step size              =         0.0174625989
  Conv. limit for RMS step   =         0.0050000000
  Convergence in RMS step    =                   NO
  Max. gradient              =         0.0320354781
  Conv. limit for gradients  =         0.0100000000
  Conv. for gradients        =                   NO
  RMS gradient               =         0.0020471730
  Conv. limit for RMS grad.  =         0.0050000000
  Conv. in RMS gradients     =                  YES
 ---------------------------------------------------

 --------------------------
 OPTIMIZATION STEP:     39
 --------------------------

 ENERGY| Total FORCE_EVAL ( FIST ) energy (a.u.):            -25.041625091193819


 --------  Informations at step =    39 ------------
  Optimization Method        =                LBFGS
  Total Energy               =       -25.0416250912
  Real energy change         =        -0.0402727669
  Decrease in energy         =                  YES
  Used time                  =                0.184

  Convergence check :
  Max. step size             =         0.0614452070
  Conv. limit for step size  =         0.0100000000
  Convergence in step size   =                   NO
  RMS step size              =         0.0033070905
  Conv. limit for RMS step   =         0.0050000000
  Convergence in RMS step    =                  YES
  Max. gradient              =         0.0215407125
  Conv. limit for gradients  =         0.0100000000
  Conv. for gradients        =                   NO
  RMS gradient               =         0.0011595677
  Conv. limit for RMS grad.  =         0.0050000000
  Conv. in RMS gradients     =                  YES
 ---------------------------------------------------

 --------------------------
 OPTIMIZATION STEP:     40
 --------------------------

 ENERGY| Total FORCE_EVAL ( FIST ) energy (a.u.):            -25.073293003778048


 --------  Informations at step =    40 ------------
  Optimization Method        =                LBFGS
  Total Energy               =       -25.0732930038
  Real energy change         =        -0.0316679126
  Decrease in energy         =                  YES
  Used time                  =                0.183

  Convergence check :
  Max. step size             =         0.0722483509
  Conv. limit for step size  =         0.0100000000
  Convergence in step size   =                   NO
  RMS step size              =         0.0076789833
  Conv. limit for RMS step   =         0.0050000000
  Convergence in RMS step    =                   NO
  Max. gradient              =         0.0219646372
  Conv. limit for gradients  =         0.0100000000
  Conv. for gradients        =                   NO
  RMS gradient               =         0.0012303894
  Conv. limit for RMS grad.  =         0.0050000000
  Conv. in RMS gradients     =                  YES
 ---------------------------------------------------

 --------------------------
 OPTIMIZATION STEP:     41
 --------------------------

 ENERGY| Total FORCE_EVAL ( FIST ) energy (a.u.):            -25.124834028460210


 --------  Informations at step =    41 ------------
  Optimization Method        =                LBFGS
  Total Energy               =       -25.1248340285
  Real energy change         =        -0.0515410247
  Decrease in energy         =                  YES
  Used time                  =                0.189

  Convergence check :
  Max. step size             =         0.1197093052
  Conv. limit for step size  =         0.0100000000
  Convergence in step size   =                   NO
  RMS step size              =         0.0149800246
  Conv. limit for RMS step   =         0.0050000000
  Convergence in RMS step    =                   NO
  Max. gradient              =         0.0349518228
  Conv. limit for gradients  =         0.0100000000
  Conv. for gradients        =                   NO
  RMS gradient               =         0.0016776759
  Conv. limit for RMS grad.  =         0.0050000000
  Conv. in RMS gradients     =                  YES
 ---------------------------------------------------

 --------------------------
 OPTIMIZATION STEP:     42
 --------------------------

 ENERGY| Total FORCE_EVAL ( FIST ) energy (a.u.):            -25.186527507145897


 --------  Informations at step =    42 ------------
  Optimization Method        =                LBFGS
  Total Energy               =       -25.1865275071
  Real energy change         =        -0.0616934787
  Decrease in energy         =                  YES
  Used time                  =                0.189

  Convergence check :
  Max. step size             =         0.2278795821
  Conv. limit for step size  =         0.0100000000
  Convergence in step size   =                   NO
  RMS step size              =         0.0359631266
  Conv. limit for RMS step   =         0.0050000000
  Convergence in RMS step    =                   NO
  Max. gradient              =         0.0639893738
  Conv. limit for gradients  =         0.0100000000
  Conv. for gradients        =                   NO
  RMS gradient               =         0.0028536773
  Conv. limit for RMS grad.  =         0.0050000000
  Conv. in RMS gradients     =                  YES
 ---------------------------------------------------

 --------------------------
 OPTIMIZATION STEP:     43
 --------------------------

 ENERGY| Total FORCE_EVAL ( FIST ) energy (a.u.):            -25.253536012334713


 --------  Informations at step =    43 ------------
  Optimization Method        =                LBFGS
  Total Energy               =       -25.2535360123
  Real energy change         =        -0.0670085052
  Decrease in energy         =                  YES
  Used time                  =                0.186

  Convergence check :
  Max. step size             =         0.0788420443
  Conv. limit for step size  =         0.0100000000
  Convergence in step size   =                   NO
  RMS step size              =         0.0069594032
  Conv. limit for RMS step   =         0.0050000000
  Convergence in RMS step    =                   NO
  Max. gradient              =         0.0491288745
  Conv. limit for gradients  =         0.0100000000
  Conv. for gradients        =                   NO
  RMS gradient               =         0.0013849009
  Conv. limit for RMS grad.  =         0.0050000000
  Conv. in RMS gradients     =                  YES
 ---------------------------------------------------

 --------------------------
 OPTIMIZATION STEP:     44
 --------------------------

 ENERGY| Total FORCE_EVAL ( FIST ) energy (a.u.):            -25.287470891619211


 --------  Informations at step =    44 ------------
  Optimization Method        =                LBFGS
  Total Energy               =       -25.2874708916
  Real energy change         =        -0.0339348793
  Decrease in energy         =                  YES
  Used time                  =                0.182

  Convergence check :
  Max. step size             =         0.1014359476
  Conv. limit for step size  =         0.0100000000
  Convergence in step size   =                   NO
  RMS step size              =         0.0073835929
  Conv. limit for RMS step   =         0.0050000000
  Convergence in RMS step    =                   NO
  Max. gradient              =         0.0316181286
  Conv. limit for gradients  =         0.0100000000
  Conv. for gradients        =                   NO
  RMS gradient               =         0.0011133262
  Conv. limit for RMS grad.  =         0.0050000000
  Conv. in RMS gradients     =                  YES
 ---------------------------------------------------

 --------------------------
 OPTIMIZATION STEP:     45
 --------------------------

 ENERGY| Total FORCE_EVAL ( FIST ) energy (a.u.):            -25.320653914441007


 --------  Informations at step =    45 ------------
  Optimization Method        =                LBFGS
  Total Energy               =       -25.3206539144
  Real energy change         =        -0.0331830228
  Decrease in energy         =                  YES
  Used time                  =                0.456

  Convergence check :
  Max. step size             =         0.1324920473
  Conv. limit for step size  =         0.0100000000
  Convergence in step size   =                   NO
  RMS step size              =         0.0074831699
  Conv. limit for RMS step   =         0.0050000000
  Convergence in RMS step    =                   NO
  Max. gradient              =         0.0183513751
  Conv. limit for gradients  =         0.0100000000
  Conv. for gradients        =                   NO
  RMS gradient               =         0.0012675825
  Conv. limit for RMS grad.  =         0.0050000000
  Conv. in RMS gradients     =                  YES
 ---------------------------------------------------

 --------------------------
 OPTIMIZATION STEP:     46
 --------------------------

 ENERGY| Total FORCE_EVAL ( FIST ) energy (a.u.):            -25.360403135872556


 --------  Informations at step =    46 ------------
  Optimization Method        =                LBFGS
  Total Energy               =       -25.3604031359
  Real energy change         =        -0.0397492214
  Decrease in energy         =                  YES
  Used time                  =                0.182

  Convergence check :
  Max. step size             =         0.1907735001
  Conv. limit for step size  =         0.0100000000
  Convergence in step size   =                   NO
  RMS step size              =         0.0143195487
  Conv. limit for RMS step   =         0.0050000000
  Convergence in RMS step    =                   NO
  Max. gradient              =         0.0443297810
  Conv. limit for gradients  =         0.0100000000
  Conv. for gradients        =                   NO
  RMS gradient               =         0.0018309729
  Conv. limit for RMS grad.  =         0.0050000000
  Conv. in RMS gradients     =                  YES
 ---------------------------------------------------

 --------------------------
 OPTIMIZATION STEP:     47
 --------------------------

 ENERGY| Total FORCE_EVAL ( FIST ) energy (a.u.):            -25.404083644573511


 --------  Informations at step =    47 ------------
  Optimization Method        =                LBFGS
  Total Energy               =       -25.4040836446
  Real energy change         =        -0.0436805087
  Decrease in energy         =                  YES
  Used time                  =                0.184

  Convergence check :
  Max. step size             =         0.0688364181
  Conv. limit for step size  =         0.0100000000
  Convergence in step size   =                   NO
  RMS step size              =         0.0090055495
  Conv. limit for RMS step   =         0.0050000000
  Convergence in RMS step    =                   NO
  Max. gradient              =         0.0485433177
  Conv. limit for gradients  =         0.0100000000
  Conv. for gradients        =                   NO
  RMS gradient               =         0.0013111509
  Conv. limit for RMS grad.  =         0.0050000000
  Conv. in RMS gradients     =                  YES
 ---------------------------------------------------

 --------------------------
 OPTIMIZATION STEP:     48
 --------------------------

 ENERGY| Total FORCE_EVAL ( FIST ) energy (a.u.):            -25.471595916402752


 --------  Informations at step =    48 ------------
  Optimization Method        =                LBFGS
  Total Energy               =       -25.4715959164
  Real energy change         =        -0.0675122718
  Decrease in energy         =                  YES
  Used time                  =                0.172

  Convergence check :
  Max. step size             =         0.1328295550
  Conv. limit for step size  =         0.0100000000
  Convergence in step size   =                   NO
  RMS step size              =         0.0182049088
  Conv. limit for RMS step   =         0.0050000000
  Convergence in RMS step    =                   NO
  Max. gradient              =         0.0448892331
  Conv. limit for gradients  =         0.0100000000
  Conv. for gradients        =                   NO
  RMS gradient               =         0.0013147312
  Conv. limit for RMS grad.  =         0.0050000000
  Conv. in RMS gradients     =                  YES
 ---------------------------------------------------

 --------------------------
 OPTIMIZATION STEP:     49
 --------------------------

 ENERGY| Total FORCE_EVAL ( FIST ) energy (a.u.):            -25.516953442419918


 --------  Informations at step =    49 ------------
  Optimization Method        =                LBFGS
  Total Energy               =       -25.5169534424
  Real energy change         =        -0.0453575260
  Decrease in energy         =                  YES
  Used time                  =                0.170

  Convergence check :
  Max. step size             =         0.1687930074
  Conv. limit for step size  =         0.0100000000
  Convergence in step size   =                   NO
  RMS step size              =         0.0205803105
  Conv. limit for RMS step   =         0.0050000000
  Convergence in RMS step    =                   NO
  Max. gradient              =         0.0311094871
  Conv. limit for gradients  =         0.0100000000
  Conv. for gradients        =                   NO
  RMS gradient               =         0.0020940607
  Conv. limit for RMS grad.  =         0.0050000000
  Conv. in RMS gradients     =                  YES
 ---------------------------------------------------

 --------------------------
 OPTIMIZATION STEP:     50
 --------------------------

 ENERGY| Total FORCE_EVAL ( FIST ) energy (a.u.):            -25.556216643374093


 --------  Informations at step =    50 ------------
  Optimization Method        =                LBFGS
  Total Energy               =       -25.5562166434
  Real energy change         =        -0.0392632010
  Decrease in energy         =                  YES
  Used time                  =                0.171

  Convergence check :
  Max. step size             =         0.1120652019
  Conv. limit for step size  =         0.0100000000
  Convergence in step size   =                   NO
  RMS step size              =         0.0150429203
  Conv. limit for RMS step   =         0.0050000000
  Convergence in RMS step    =                   NO
  Max. gradient              =         0.0332210522
  Conv. limit for gradients  =         0.0100000000
  Conv. for gradients        =                   NO
  RMS gradient               =         0.0011781415
  Conv. limit for RMS grad.  =         0.0050000000
  Conv. in RMS gradients     =                  YES
 ---------------------------------------------------

 --------------------------
 OPTIMIZATION STEP:     51
 --------------------------

 ENERGY| Total FORCE_EVAL ( FIST ) energy (a.u.):            -25.579280781641170


 --------  Informations at step =    51 ------------
  Optimization Method        =                LBFGS
  Total Energy               =       -25.5792807816
  Real energy change         =        -0.0230641383
  Decrease in energy         =                  YES
  Used time                  =                0.177

  Convergence check :
  Max. step size             =         0.0828163944
  Conv. limit for step size  =         0.0100000000
  Convergence in step size   =                   NO
  RMS step size              =         0.0028349593
  Conv. limit for RMS step   =         0.0050000000
  Convergence in RMS step    =                  YES
  Max. gradient              =         0.0286640770
  Conv. limit for gradients  =         0.0100000000
  Conv. for gradients        =                   NO
  RMS gradient               =         0.0010169310
  Conv. limit for RMS grad.  =         0.0050000000
  Conv. in RMS gradients     =                  YES
 ---------------------------------------------------

 --------------------------
 OPTIMIZATION STEP:     52
 --------------------------

 ENERGY| Total FORCE_EVAL ( FIST ) energy (a.u.):            -25.608700696975522


 --------  Informations at step =    52 ------------
  Optimization Method        =                LBFGS
  Total Energy               =       -25.6087006970
  Real energy change         =        -0.0294199153
  Decrease in energy         =                  YES
  Used time                  =                0.173

  Convergence check :
  Max. step size             =         0.1667400044
  Conv. limit for step size  =         0.0100000000
  Convergence in step size   =                   NO
  RMS step size              =         0.0092702006
  Conv. limit for RMS step   =         0.0050000000
  Convergence in RMS step    =                   NO
  Max. gradient              =         0.0265475969
  Conv. limit for gradients  =         0.0100000000
  Conv. for gradients        =                   NO
  RMS gradient               =         0.0018371960
  Conv. limit for RMS grad.  =         0.0050000000
  Conv. in RMS gradients     =                  YES
 ---------------------------------------------------

 --------------------------
 OPTIMIZATION STEP:     53
 --------------------------

 ENERGY| Total FORCE_EVAL ( FIST ) energy (a.u.):            -25.637814559279121


 --------  Informations at step =    53 ------------
  Optimization Method        =                LBFGS
  Total Energy               =       -25.6378145593
  Real energy change         =        -0.0291138623
  Decrease in energy         =                  YES
  Used time                  =                0.173

  Convergence check :
  Max. step size             =         0.0595341624
  Conv. limit for step size  =         0.0100000000
  Convergence in step size   =                   NO
  RMS step size              =         0.0045575964
  Conv. limit for RMS step   =         0.0050000000
  Convergence in RMS step    =                  YES
  Max. gradient              =         0.0320766819
  Conv. limit for gradients  =         0.0100000000
  Conv. for gradients        =                   NO
  RMS gradient               =         0.0010003506
  Conv. limit for RMS grad.  =         0.0050000000
  Conv. in RMS gradients     =                  YES
 ---------------------------------------------------

 --------------------------
 OPTIMIZATION STEP:     54
 --------------------------

 ENERGY| Total FORCE_EVAL ( FIST ) energy (a.u.):            -25.668597838982226


 --------  Informations at step =    54 ------------
  Optimization Method        =                LBFGS
  Total Energy               =       -25.6685978390
  Real energy change         =        -0.0307832797
  Decrease in energy         =                  YES
  Used time                  =                0.173

  Convergence check :
  Max. step size             =         0.0609947669
  Conv. limit for step size  =         0.0100000000
  Convergence in step size   =                   NO
  RMS step size              =         0.0102334742
  Conv. limit for RMS step   =         0.0050000000
  Convergence in RMS step    =                   NO
  Max. gradient              =         0.0308036917
  Conv. limit for gradients  =         0.0100000000
  Conv. for gradients        =                   NO
  RMS gradient               =         0.0010421387
  Conv. limit for RMS grad.  =         0.0050000000
  Conv. in RMS gradients     =                  YES
 ---------------------------------------------------

 --------------------------
 OPTIMIZATION STEP:     55
 --------------------------

 ENERGY| Total FORCE_EVAL ( FIST ) energy (a.u.):            -25.720017205939687


 --------  Informations at step =    55 ------------
  Optimization Method        =                LBFGS
  Total Energy               =       -25.7200172059
  Real energy change         =        -0.0514193670
  Decrease in energy         =                  YES
  Used time                  =                0.173

  Convergence check :
  Max. step size             =         0.1220578858
  Conv. limit for step size  =         0.0100000000
  Convergence in step size   =                   NO
  RMS step size              =         0.0236207941
  Conv. limit for RMS step   =         0.0050000000
  Convergence in RMS step    =                   NO
  Max. gradient              =         0.0315196759
  Conv. limit for gradients  =         0.0100000000
  Conv. for gradients        =                   NO
  RMS gradient               =         0.0011570221
  Conv. limit for RMS grad.  =         0.0050000000
  Conv. in RMS gradients     =                  YES
 ---------------------------------------------------

 --------------------------
 OPTIMIZATION STEP:     56
 --------------------------

 ENERGY| Total FORCE_EVAL ( FIST ) energy (a.u.):            -25.716750782520705


 ENERGY| Total FORCE_EVAL ( FIST ) energy (a.u.):            -25.750289396414743


 --------  Informations at step =    56 ------------
  Optimization Method        =                LBFGS
  Total Energy               =       -25.7502893964
  Real energy change         =        -0.0302721905
  Decrease in energy         =                  YES
  Used time                  =                0.605

  Convergence check :
  Max. step size             =         0.1036956808
  Conv. limit for step size  =         0.0100000000
  Convergence in step size   =                   NO
  RMS step size              =         0.0195459359
  Conv. limit for RMS step   =         0.0050000000
  Convergence in RMS step    =                   NO
  Max. gradient              =         0.0286522920
  Conv. limit for gradients  =         0.0100000000
  Conv. for gradients        =                   NO
  RMS gradient               =         0.0019386436
  Conv. limit for RMS grad.  =         0.0050000000
  Conv. in RMS gradients     =                  YES
 ---------------------------------------------------

 --------------------------
 OPTIMIZATION STEP:     57
 --------------------------

 ENERGY| Total FORCE_EVAL ( FIST ) energy (a.u.):            -25.787173103535093


 --------  Informations at step =    57 ------------
  Optimization Method        =                LBFGS
  Total Energy               =       -25.7871731035
  Real energy change         =        -0.0368837071
  Decrease in energy         =                  YES
  Used time                  =                0.173

  Convergence check :
  Max. step size             =         0.0931337885
  Conv. limit for step size  =         0.0100000000
  Convergence in step size   =                   NO
  RMS step size              =         0.0186710590
  Conv. limit for RMS step   =         0.0050000000
  Convergence in RMS step    =                   NO
  Max. gradient              =         0.0252603106
  Conv. limit for gradients  =         0.0100000000
  Conv. for gradients        =                   NO
  RMS gradient               =         0.0009712832
  Conv. limit for RMS grad.  =         0.0050000000
  Conv. in RMS gradients     =                  YES
 ---------------------------------------------------

 --------------------------
 OPTIMIZATION STEP:     58
 --------------------------

 ENERGY| Total FORCE_EVAL ( FIST ) energy (a.u.):            -25.811081927124309


 --------  Informations at step =    58 ------------
  Optimization Method        =                LBFGS
  Total Energy               =       -25.8110819271
  Real energy change         =        -0.0239088236
  Decrease in energy         =                  YES
  Used time                  =                0.174

  Convergence check :
  Max. step size             =         0.0971259458
  Conv. limit for step size  =         0.0100000000
  Convergence in step size   =                   NO
  RMS step size              =         0.0052375574
  Conv. limit for RMS step   =         0.0050000000
  Convergence in RMS step    =                   NO
  Max. gradient              =         0.0232339325
  Conv. limit for gradients  =         0.0100000000
  Conv. for gradients        =                   NO
  RMS gradient               =         0.0008751930
  Conv. limit for RMS grad.  =         0.0050000000
  Conv. in RMS gradients     =                  YES
 ---------------------------------------------------

 --------------------------
 OPTIMIZATION STEP:     59
 --------------------------

 ENERGY| Total FORCE_EVAL ( FIST ) energy (a.u.):            -25.835103593009084


 --------  Informations at step =    59 ------------
  Optimization Method        =                LBFGS
  Total Energy               =       -25.8351035930
  Real energy change         =        -0.0240216659
  Decrease in energy         =                  YES
  Used time                  =                0.174

  Convergence check :
  Max. step size             =         0.0886412853
  Conv. limit for step size  =         0.0100000000
  Convergence in step size   =                   NO
  RMS step size              =         0.0074514307
  Conv. limit for RMS step   =         0.0050000000
  Convergence in RMS step    =                   NO
  Max. gradient              =         0.0345264355
  Conv. limit for gradients  =         0.0100000000
  Conv. for gradients        =                   NO
  RMS gradient               =         0.0011698159
  Conv. limit for RMS grad.  =         0.0050000000
  Conv. in RMS gradients     =                  YES
 ---------------------------------------------------

 --------------------------
 OPTIMIZATION STEP:     60
 --------------------------

 ENERGY| Total FORCE_EVAL ( FIST ) energy (a.u.):            -25.865954376903964


 --------  Informations at step =    60 ------------
  Optimization Method        =                LBFGS
  Total Energy               =       -25.8659543769
  Real energy change         =        -0.0308507839
  Decrease in energy         =                  YES
  Used time                  =                0.172

  Convergence check :
  Max. step size             =         0.1287853172
  Conv. limit for step size  =         0.0100000000
  Convergence in step size   =                   NO
  RMS step size              =         0.0074694178
  Conv. limit for RMS step   =         0.0050000000
  Convergence in RMS step    =                   NO
  Max. gradient              =         0.0420789735
  Conv. limit for gradients  =         0.0100000000
  Conv. for gradients        =                   NO
  RMS gradient               =         0.0011904468
  Conv. limit for RMS grad.  =         0.0050000000
  Conv. in RMS gradients     =                  YES
 ---------------------------------------------------

 --------------------------
 OPTIMIZATION STEP:     61
 --------------------------

 ENERGY| Total FORCE_EVAL ( FIST ) energy (a.u.):            -25.909294553090916


 --------  Informations at step =    61 ------------
  Optimization Method        =                LBFGS
  Total Energy               =       -25.9092945531
  Real energy change         =        -0.0433401762
  Decrease in energy         =                  YES
  Used time                  =                0.172

  Convergence check :
  Max. step size             =         0.2247061302
  Conv. limit for step size  =         0.0100000000
  Convergence in step size   =                   NO
  RMS step size              =         0.0194695071
  Conv. limit for RMS step   =         0.0050000000
  Convergence in RMS step    =                   NO
  Max. gradient              =         0.0338192065
  Conv. limit for gradients  =         0.0100000000
  Conv. for gradients        =                   NO
  RMS gradient               =         0.0014444079
  Conv. limit for RMS grad.  =         0.0050000000
  Conv. in RMS gradients     =                  YES
 ---------------------------------------------------

 --------------------------
 OPTIMIZATION STEP:     62
 --------------------------

 ENERGY| Total FORCE_EVAL ( FIST ) energy (a.u.):            -25.944716343995832


 --------  Informations at step =    62 ------------
  Optimization Method        =                LBFGS
  Total Energy               =       -25.9447163440
  Real energy change         =        -0.0354217909
  Decrease in energy         =                  YES
  Used time                  =                0.172

  Convergence check :
  Max. step size             =         0.1231919679
  Conv. limit for step size  =         0.0100000000
  Convergence in step size   =                   NO
  RMS step size              =         0.0118807008
  Conv. limit for RMS step   =         0.0050000000
[...]
  Used time                  =                0.455

  Convergence check :
  Max. step size             =         0.0452129314
  Conv. limit for step size  =         0.0100000000
  Convergence in step size   =                   NO
  RMS step size              =         0.0036798602
  Conv. limit for RMS step   =         0.0050000000
  Convergence in RMS step    =                  YES
  Max. gradient              =         0.0131576756
  Conv. limit for gradients  =         0.0100000000
  Conv. for gradients        =                   NO
  RMS gradient               =         0.0002934158
  Conv. limit for RMS grad.  =         0.0050000000
  Conv. in RMS gradients     =                  YES
 ---------------------------------------------------

 --------------------------
 OPTIMIZATION STEP:    358
 --------------------------

 ENERGY| Total FORCE_EVAL ( FIST ) energy (a.u.):            -28.430396999081999


 --------  Informations at step =   358 ------------
  Optimization Method        =                LBFGS
  Total Energy               =       -28.4303969991
  Real energy change         =        -0.0028309893
  Decrease in energy         =                  YES
  Used time                  =                0.173

  Convergence check :
  Max. step size             =         0.0828040739
  Conv. limit for step size  =         0.0100000000
  Convergence in step size   =                   NO
  RMS step size              =         0.0065831546
  Conv. limit for RMS step   =         0.0050000000
  Convergence in RMS step    =                   NO
  Max. gradient              =         0.0111968690
  Conv. limit for gradients  =         0.0100000000
  Conv. for gradients        =                   NO
  RMS gradient               =         0.0003490066
  Conv. limit for RMS grad.  =         0.0050000000
  Conv. in RMS gradients     =                  YES
 ---------------------------------------------------

 --------------------------
 OPTIMIZATION STEP:    359
 --------------------------

 ENERGY| Total FORCE_EVAL ( FIST ) energy (a.u.):            -28.432335911264644


 --------  Informations at step =   359 ------------
  Optimization Method        =                LBFGS
  Total Energy               =       -28.4323359113
  Real energy change         =        -0.0019389122
  Decrease in energy         =                  YES
  Used time                  =                0.175

  Convergence check :
  Max. step size             =         0.1341052106
  Conv. limit for step size  =         0.0100000000
  Convergence in step size   =                   NO
  RMS step size              =         0.0106447314
  Conv. limit for RMS step   =         0.0050000000
  Convergence in RMS step    =                   NO
  Max. gradient              =         0.0147008653
  Conv. limit for gradients  =         0.0100000000
  Conv. for gradients        =                   NO
  RMS gradient               =         0.0005410249
  Conv. limit for RMS grad.  =         0.0050000000
  Conv. in RMS gradients     =                  YES
 ---------------------------------------------------

 --------------------------
 OPTIMIZATION STEP:    360
 --------------------------

 ENERGY| Total FORCE_EVAL ( FIST ) energy (a.u.):            -28.434843381505900


 --------  Informations at step =   360 ------------
  Optimization Method        =                LBFGS
  Total Energy               =       -28.4348433815
  Real energy change         =        -0.0025074702
  Decrease in energy         =                  YES
  Used time                  =                0.172

  Convergence check :
  Max. step size             =         0.0175500030
  Conv. limit for step size  =         0.0100000000
  Convergence in step size   =                   NO
  RMS step size              =         0.0010025640
  Conv. limit for RMS step   =         0.0050000000
  Convergence in RMS step    =                  YES
  Max. gradient              =         0.0068450845
  Conv. limit for gradients  =         0.0100000000
  Conv. in gradients         =                  YES
  RMS gradient               =         0.0002724403
  Conv. limit for RMS grad.  =         0.0050000000
  Conv. in RMS gradients     =                  YES
 ---------------------------------------------------

 --------------------------
 OPTIMIZATION STEP:    361
 --------------------------

 ENERGY| Total FORCE_EVAL ( FIST ) energy (a.u.):            -28.436333000669624


 --------  Informations at step =   361 ------------
  Optimization Method        =                LBFGS
  Total Energy               =       -28.4363330007
  Real energy change         =        -0.0014896192
  Decrease in energy         =                  YES
  Used time                  =                0.171

  Convergence check :
  Max. step size             =         0.0229020653
  Conv. limit for step size  =         0.0100000000
  Convergence in step size   =                   NO
  RMS step size              =         0.0008866431
  Conv. limit for RMS step   =         0.0050000000
  Convergence in RMS step    =                  YES
  Max. gradient              =         0.0053785945
  Conv. limit for gradients  =         0.0100000000
  Conv. in gradients         =                  YES
  RMS gradient               =         0.0002318870
  Conv. limit for RMS grad.  =         0.0050000000
  Conv. in RMS gradients     =                  YES
 ---------------------------------------------------

 --------------------------
 OPTIMIZATION STEP:    362
 --------------------------

 ENERGY| Total FORCE_EVAL ( FIST ) energy (a.u.):            -28.438447563477300


 --------  Informations at step =   362 ------------
  Optimization Method        =                LBFGS
  Total Energy               =       -28.4384475635
  Real energy change         =        -0.0021145628
  Decrease in energy         =                  YES
  Used time                  =                0.177

  Convergence check :
  Max. step size             =         0.0593303467
  Conv. limit for step size  =         0.0100000000
  Convergence in step size   =                   NO
  RMS step size              =         0.0042058766
  Conv. limit for RMS step   =         0.0050000000
  Convergence in RMS step    =                  YES
  Max. gradient              =         0.0071645632
  Conv. limit for gradients  =         0.0100000000
  Conv. in gradients         =                  YES
  RMS gradient               =         0.0003532383
  Conv. limit for RMS grad.  =         0.0050000000
  Conv. in RMS gradients     =                  YES
 ---------------------------------------------------

 --------------------------
 OPTIMIZATION STEP:    363
 --------------------------

 ENERGY| Total FORCE_EVAL ( FIST ) energy (a.u.):            -28.440335323502971


 --------  Informations at step =   363 ------------
  Optimization Method        =                LBFGS
  Total Energy               =       -28.4403353235
  Real energy change         =        -0.0018877600
  Decrease in energy         =                  YES
  Used time                  =                0.177

  Convergence check :
  Max. step size             =         0.0900707583
  Conv. limit for step size  =         0.0100000000
  Convergence in step size   =                   NO
  RMS step size              =         0.0067026602
  Conv. limit for RMS step   =         0.0050000000
  Convergence in RMS step    =                   NO
  Max. gradient              =         0.0117477310
  Conv. limit for gradients  =         0.0100000000
  Conv. for gradients        =                   NO
  RMS gradient               =         0.0003922939
  Conv. limit for RMS grad.  =         0.0050000000
  Conv. in RMS gradients     =                  YES
 ---------------------------------------------------

 --------------------------
 OPTIMIZATION STEP:    364
 --------------------------

 ENERGY| Total FORCE_EVAL ( FIST ) energy (a.u.):            -28.442096632879284


 --------  Informations at step =   364 ------------
  Optimization Method        =                LBFGS
  Total Energy               =       -28.4420966329
  Real energy change         =        -0.0017613094
  Decrease in energy         =                  YES
  Used time                  =                0.177

  Convergence check :
  Max. step size             =         0.0561176644
  Conv. limit for step size  =         0.0100000000
  Convergence in step size   =                   NO
  RMS step size              =         0.0039881946
  Conv. limit for RMS step   =         0.0050000000
  Convergence in RMS step    =                  YES
  Max. gradient              =         0.0076866381
  Conv. limit for gradients  =         0.0100000000
  Conv. in gradients         =                  YES
  RMS gradient               =         0.0002636438
  Conv. limit for RMS grad.  =         0.0050000000
  Conv. in RMS gradients     =                  YES
 ---------------------------------------------------

 --------------------------
 OPTIMIZATION STEP:    365
 --------------------------

 ENERGY| Total FORCE_EVAL ( FIST ) energy (a.u.):            -28.443980362581339


 --------  Informations at step =   365 ------------
  Optimization Method        =                LBFGS
  Total Energy               =       -28.4439803626
  Real energy change         =        -0.0018837297
  Decrease in energy         =                  YES
  Used time                  =                0.177

  Convergence check :
  Max. step size             =         0.0799682998
  Conv. limit for step size  =         0.0100000000
  Convergence in step size   =                   NO
  RMS step size              =         0.0057726333
  Conv. limit for RMS step   =         0.0050000000
  Convergence in RMS step    =                   NO
  Max. gradient              =         0.0053168138
  Conv. limit for gradients  =         0.0100000000
  Conv. in gradients         =                  YES
  RMS gradient               =         0.0002557297
  Conv. limit for RMS grad.  =         0.0050000000
  Conv. in RMS gradients     =                  YES
 ---------------------------------------------------

 --------------------------
 OPTIMIZATION STEP:    366
 --------------------------

 ENERGY| Total FORCE_EVAL ( FIST ) energy (a.u.):            -28.445925791977739


 --------  Informations at step =   366 ------------
  Optimization Method        =                LBFGS
  Total Energy               =       -28.4459257920
  Real energy change         =        -0.0019454294
  Decrease in energy         =                  YES
  Used time                  =                0.175

  Convergence check :
  Max. step size             =         0.0865993328
  Conv. limit for step size  =         0.0100000000
  Convergence in step size   =                   NO
  RMS step size              =         0.0061555603
  Conv. limit for RMS step   =         0.0050000000
  Convergence in RMS step    =                   NO
  Max. gradient              =         0.0064565684
  Conv. limit for gradients  =         0.0100000000
  Conv. in gradients         =                  YES
  RMS gradient               =         0.0002616870
  Conv. limit for RMS grad.  =         0.0050000000
  Conv. in RMS gradients     =                  YES
 ---------------------------------------------------

 --------------------------
 OPTIMIZATION STEP:    367
 --------------------------

 ENERGY| Total FORCE_EVAL ( FIST ) energy (a.u.):            -28.446860441417876


 --------  Informations at step =   367 ------------
  Optimization Method        =                LBFGS
  Total Energy               =       -28.4468604414
  Real energy change         =        -0.0009346494
  Decrease in energy         =                  YES
  Used time                  =                0.174

  Convergence check :
  Max. step size             =         0.1999275397
  Conv. limit for step size  =         0.0100000000
  Convergence in step size   =                   NO
  RMS step size              =         0.0144480286
  Conv. limit for RMS step   =         0.0050000000
  Convergence in RMS step    =                   NO
  Max. gradient              =         0.0114290571
  Conv. limit for gradients  =         0.0100000000
  Conv. for gradients        =                   NO
  RMS gradient               =         0.0008172842
  Conv. limit for RMS grad.  =         0.0050000000
  Conv. in RMS gradients     =                  YES
 ---------------------------------------------------

 --------------------------
 OPTIMIZATION STEP:    368
 --------------------------

 ENERGY| Total FORCE_EVAL ( FIST ) energy (a.u.):            -28.450804265384360


 --------  Informations at step =   368 ------------
  Optimization Method        =                LBFGS
  Total Energy               =       -28.4508042654
  Real energy change         =        -0.0039438240
  Decrease in energy         =                  YES
  Used time                  =                0.174

  Convergence check :
  Max. step size             =         0.0099827301
  Conv. limit for step size  =         0.0100000000
  Convergence in step size   =                  YES
  RMS step size              =         0.0007891138
  Conv. limit for RMS step   =         0.0050000000
  Convergence in RMS step    =                  YES
  Max. gradient              =         0.0061057290
  Conv. limit for gradients  =         0.0100000000
  Conv. in gradients         =                  YES
  RMS gradient               =         0.0002605894
  Conv. limit for RMS grad.  =         0.0050000000
  Conv. in RMS gradients     =                  YES
 ---------------------------------------------------

 *******************************************************************************
 ***                    GEOMETRY OPTIMIZATION COMPLETED                      ***
 *******************************************************************************

                    Reevaluating energy at the minimum

 ENERGY| Total FORCE_EVAL ( FIST ) energy (a.u.):            -28.450804265384360


 -------------------------------------------------------------------------------
 -                                                                             -
 -                                DBCSR STATISTICS                             -
 -                                                                             -
 -------------------------------------------------------------------------------
 COUNTER                                    TOTAL       BLAS       SMM       ACC
 flops inhomo. stacks                           0       0.0%      0.0%      0.0%
 flops total                         0.000000E+00       0.0%      0.0%      0.0%
 flops max/rank                      0.000000E+00       0.0%      0.0%      0.0%
 matmuls inhomo. stacks                         0       0.0%      0.0%      0.0%
 matmuls total                                  0       0.0%      0.0%      0.0%
 number of processed stacks                     0       0.0%      0.0%      0.0%
 average stack size                                     0.0       0.0       0.0
 marketing flops                     0.000000E+00
 -------------------------------------------------------------------------------

 MEMORY| Estimated peak process memory [MiB]                                   0

 -------------------------------------------------------------------------------
 -                                                                             -
 -                           R E F E R E N C E S                               -
 -                                                                             -
 -------------------------------------------------------------------------------
 
 CP2K version 5.1, the CP2K developers group (2017).
 CP2K is freely available from https://www.cp2k.org/ .

 Schuett, Ole; Messmer, Peter; Hutter, Juerg; VandeVondele, Joost. 
 Electronic Structure Calculations on Graphics Processing Units, John Wiley & Sons, Ltd, 173-190 (2016). 
 GPU-Accelerated Sparse Matrix-Matrix Multiplication for Linear Scaling Density Functional Theory.
 http://dx.doi.org/10.1002/9781118670712.ch8


 Borstnik, U; VandeVondele, J; Weber, V; Hutter, J. 
 PARALLEL COMPUTING, 40 (5-6), 47-58 (2014). 
 Sparse matrix multiplication: The distributed block-compressed sparse
 row library.
 http://dx.doi.org/10.1016/j.parco.2014.03.012


 Hutter, J; Iannuzzi, M; Schiffmann, F; VandeVondele, J. 
 WILEY INTERDISCIPLINARY REVIEWS-COMPUTATIONAL MOLECULAR SCIENCE, 4 (1), 15-25 (2014). 
 CP2K: atomistic simulations of condensed matter systems.
 http://dx.doi.org/10.1002/wcms.1159


 Frigo, M; Johnson, SG. 
 PROCEEDINGS OF THE IEEE, 93 (2), 216-231 (2005). 
 The design and implementation of FFTW3.
 http://dx.doi.org/10.1109/JPROC.2004.840301


 ESSMANN, U; PERERA, L; BERKOWITZ, ML; DARDEN, T; LEE, H; PEDERSEN, LG. 
 JOURNAL OF CHEMICAL PHYSICS, 103 (19), 8577-8593 (1995). 
 A SMOOTH PARTICLE MESH EWALD METHOD.
 http://dx.doi.org/10.1063/1.470117


 BYRD, RH; LU, PH; NOCEDAL, J; ZHU, CY. 
 SIAM JOURNAL ON SCIENTIFIC COMPUTING, 16 (5), 1190-1208 (1995). 
 A LIMITED MEMORY ALGORITHM FOR BOUND CONSTRAINED OPTIMIZATION.
 http://dx.doi.org/10.1137/0916069


 -------------------------------------------------------------------------------
 -                                                                             -
 -                                T I M I N G                                  -
 -                                                                             -
 -------------------------------------------------------------------------------
 SUBROUTINE                       CALLS  ASD         SELF TIME        TOTAL TIME
                                MAXIMUM       AVERAGE  MAXIMUM  AVERAGE  MAXIMUM
 CP2K                                 1  1.0    0.017    0.017   75.178   75.178
 cp_geo_opt                           1  2.0    0.007    0.007   74.719   74.719
 geoopt_lbfgs                         1  3.0    0.033    0.033   74.712   74.712
 cp_opt_gopt_step                   368  4.0    0.216    0.216   74.468   74.468
 cp_eval_at                         385  5.0    0.072    0.072   74.408   74.408
 fist_calc_energy_force             385  6.0    0.055    0.055   74.195   74.195
 spme_evaluate                      385  7.0    3.741    3.741   33.959   33.959
 force_nonbond                      385  7.0   32.762   32.762   32.762   32.762
 pw_transfer                       3465  8.6    0.005    0.005   26.774   26.774
 fft_wrap_pw1pw2                   1540  9.0    0.014    0.014   26.450   26.450
 fft_wrap_pw1pw2_10                1540 10.0    1.774    1.774   26.437   26.437
 fft3d_s                           1542 11.0   21.882   21.882   21.883   21.883
 list_control                       385  7.0    0.030    0.030    7.031    7.031
 build_fist_neighbor_lists           29  8.0    0.001    0.001    7.001    7.001
 build_neighbor_lists                29  9.0    5.735    5.735    5.859    5.859
 pw_poisson_solve                   385  8.0    1.881    1.881    2.770    2.770
 pw_scatter_s                      1155 11.0    2.362    2.362    2.362    2.362
 -------------------------------------------------------------------------------

 The number of warnings for this run is : 2
 
 -------------------------------------------------------------------------------
  **** **** ******  **  PROGRAM ENDED AT                 2019-08-12 11:30:37.257
 ***** ** ***  *** **   PROGRAM RAN ON                              S4A-Q177HV29
 **    ****   ******    PROGRAM RAN BY                                  sllabres
 ***** **    ** ** **   PROGRAM PROCESS ID                                 31503
  **** **  *******  **  PROGRAM STOPPED IN /Users/sllabres/Work/github_repos/CP2
                                           K_tutorials_for_biological_simulation
                                           s/AMBER_NMA/section2/CP2K
