#     Step Nr.          Time[fs]        Kin.[a.u.]          Temp[K]            Pot.[a.u.]        Cons Qty[a.u.]        UsedTime[s]
         0            0.000000         6.198765522       298.000000000       -28.450804265       -22.250134064         0.000000000
         1            0.500000         5.867309562       282.065556979       -28.113824703       -22.230944278         0.756913900
         2            1.000000         5.231210389       251.485669272       -27.390137900       -22.193033932         0.199188948
         3            1.500000         4.748015544       228.256517717       -26.841157925       -22.174201366         0.197983027
         4            2.000000         4.728900270       227.337568365       -26.751285836       -22.189637561         0.195689917
         5            2.500000         4.898935426       235.511853450       -26.898197385       -22.216790296         0.195577145
         6            3.000000         4.927328370       236.876818333       -26.879751005       -22.222541944         0.197920084
         7            3.500000         4.750925770       228.396424188       -26.604224918       -22.201758436         0.205507755
         8            4.000000         4.602552281       221.263504003       -26.365908686       -22.181710316         0.198531151
         9            4.500000         4.744360792       228.080818858       -26.452910644       -22.189372769         0.200827837
        10            5.000000         5.072049074       243.834134219       -26.748049841       -22.218284642         0.201910973
        11            5.500000         5.192325999       249.616337716       -26.821101805       -22.234507053         0.201581240
        12            6.000000         4.879254344       234.565703369       -26.428993114       -22.215951380         0.196499825
        13            6.500000         4.385274410       210.818068487       -25.841367686       -22.179526110         0.197737932
        14            7.000000         4.262577175       204.919510801       -25.593937762       -22.164424828         0.200567245
        15            7.500000         4.609062953       221.576498606       -25.909813184       -22.188874463         0.198122978
        16            8.000000         5.152918714       247.721868389       -26.423787474       -22.228664371         0.199765921
        17            8.500000         5.293097076       254.460815324       -26.536387703       -22.242698521         0.452993155
        18            9.000000         4.872833252       234.257015201       -26.029920995       -22.217999370         0.210920811
        19            9.500000         4.203848696       202.096192712       -25.260348898       -22.182464508         0.200316906
        20           10.000000         3.840200610       184.614142568       -24.745906324       -22.172531320         0.195746183
        21           10.500000         3.831502660       184.195996572       -24.636141075       -22.193134789         0.198066950
        22           11.000000         3.934401385       189.142758944       -24.631858647       -22.213519986         0.196984053
        23           11.500000         3.849556264       185.063907119       -24.424697116       -22.204735165         0.196082830
        24           12.000000         3.691478898       177.464481874       -24.128586171       -22.175116999         0.202042103
        25           12.500000         3.845281286       184.858391461       -24.168271348       -22.162041912         0.199969053
        26           13.000000         4.480239701       215.383438223       -24.729849383       -22.187538310         0.208352089
        27           13.500000         5.194678303       249.729422563       -25.426249929       -22.229201098         0.202233791
        28           14.000000         5.413639355       260.255775487       -25.627864160       -22.242508936         0.199236155
        29           14.500000         5.020707380       241.365929064       -25.133221686       -22.211221799         0.287557125
        30           15.000000         4.412383112       212.121294617       -24.397715630       -22.166222574         0.218209743
        31           15.500000         4.220298653       202.887009376       -24.082606076       -22.153021373         0.448668242
        32           16.000000         4.563348219       219.378804457       -24.391044461       -22.183009712         0.198091984
        33           16.500000         5.088599752       244.629792970       -24.881049432       -22.221236612         0.206849813
        34           17.000000         5.247340804       252.261124298       -24.977666284       -22.226131832         0.193554163
        35           17.500000         4.951470037       238.037406927       -24.590672143       -22.195490808         0.229652882
        36           18.000000         4.594015274       220.853095170       -24.160888824       -22.167289196         0.194347143
        37           18.500000         4.609980719       221.620619367       -24.101638640       -22.174085394         0.200912714
        38           19.000000         4.817617696       231.602577717       -24.315502091       -22.204795354         0.211976051
        39           19.500000         4.905151155       235.810668952       -24.352845132       -22.218264200         0.212373018
        40           20.000000         4.687746377       225.359132472       -24.014075703       -22.192931014         0.194822073
        41           20.500000         4.497060045       216.192060937       -23.663033673       -22.154006055         0.194308043
        42           21.000000         4.751081747       228.403922625       -23.868036197       -22.147584157         0.443242788
        43           21.500000         5.610932069       269.740442773       -24.717630598       -22.187559351         0.200285196
        44           22.000000         6.469641348       311.022108366       -25.609513991       -22.236509043         0.192734957
        45           22.500000         6.597014798       317.145470819       -25.811985323       -22.245150001         0.202801943
        46           23.000000         6.046592773       290.684433881       -25.201895113       -22.206231752         0.213850260
        47           23.500000         5.281658456       253.910914081       -24.359999235       -22.161392214         0.194295645
        48           24.000000         4.909313634       236.010776331       -23.951296071       -22.154956404         0.203188181
        49           24.500000         5.019089852       241.288167898       -24.081736512       -22.186632913         0.201648951
        50           25.000000         5.227951479       251.329000138       -24.289488316       -22.214606378         0.203965902
        51           25.500000         5.124059383       246.334482363       -24.161591160       -22.205369490         0.196407080
        52           26.000000         4.863952128       233.830063258       -23.829016413       -22.172305222         0.202608109
        53           26.500000         4.854043834       233.353731084       -23.771094439       -22.158650433         0.465066910
        54           27.000000         5.316531999       255.587427877       -24.181960330       -22.185360306         0.279083014
        55           27.500000         5.784620209       278.090341767       -24.661407724       -22.224202529         0.192070007
        56           28.000000         5.790749912       278.385021650       -24.634937728       -22.228759741         0.202568054
        57           28.500000         5.288236401       254.227142797       -24.038919320       -22.188982631         0.208868980
        58           29.000000         4.811307494       231.299220481       -23.458443737       -22.144980521         0.192234993
        59           29.500000         4.949638107       237.949338587       -23.544293968       -22.144763035         0.190143108
        60           30.000000         5.684529316       273.278563316       -24.299284903       -22.190537792         0.201156855
        61           30.500000         6.381161376       306.768514375       -25.039659247       -22.235192992         0.196372986
        62           31.000000         6.452343602       310.190534975       -25.099968992       -22.234371224         0.191230059
        63           31.500000         5.876069316       282.486674158       -24.489036272       -22.193948604         0.190359831
        64           32.000000         5.265260146       253.122580307       -23.800155069       -22.160406422         0.439928055
        65           32.500000         5.044440417       242.506873195       -23.531649676       -22.167403772         0.196381092
        66           33.000000         5.105339010       245.434517495       -23.588854163       -22.198930777         0.189352989
        67           33.500000         5.074689701       243.961079949       -23.512147284       -22.210599460         0.188243151
        68           34.000000         4.784056919       229.989173953       -23.127679137       -22.183528930         0.191833735
        69           34.500000         4.596052686       220.951041907       -22.828240011       -22.148484999         0.202507019
        70           35.000000         4.938897596       237.432998315       -23.123934940       -22.150837059         0.189219236
        71           35.500000         5.784900180       278.103801078       -23.972271066       -22.196033935         0.188423872
        72           36.000000         6.430911401       309.160201464       -24.693386093       -22.239425177         0.192466974
        73           36.500000         6.395967557       307.480308043       -24.644769617       -22.234903227         0.199883938
        74           37.000000         5.703440313       274.187692246       -23.898957552       -22.186341396         0.190744162
        75           37.500000         5.057119867       243.116426201       -23.173537739       -22.143661630         0.189791918
        76           38.000000         5.049171551       242.734318160       -23.104437503       -22.149452004         0.192373037
        77           38.500000         5.581000862       268.301527325       -23.610922243       -22.193316000         0.440970898
        78           39.000000         6.021464643       289.476421955       -24.043556365       -22.225092969         0.188526154
        79           39.500000         5.936905058       285.411296989       -23.923507875       -22.211813282         0.188915014
        80           40.000000         5.504779202       264.637240492       -23.440436434       -22.173949447         0.190337896
        81           40.500000         5.264740003       253.097574899       -23.145468734       -22.158612897         0.194794178
        82           41.000000         5.403828226       259.784114417       -23.263082153       -22.183566958         0.188084841
        83           41.500000         5.575225519       268.023882948       -23.427828580       -22.216033019         0.188766003
        84           42.000000         5.330067824       256.238150314       -23.164898228       -22.211622688         0.189151049
        85           42.500000         4.810883754       231.278849595       -22.540496376       -22.168438780         0.189659834
        86           43.000000         4.574014392       219.891571005       -22.189739029       -22.132525789         0.188750982
        87           43.500000         5.080637277       244.247004239       -22.640236093       -22.147190571         0.192435026
        88           44.000000         6.065191294       291.578540810       -23.669501301       -22.202784056         0.191099167
        89           44.500000         6.823903310       328.052929139       -24.441620598       -22.244059626         0.203420877
        90           45.000000         6.687814190       321.510568786       -24.340016955       -22.230434123         0.190393209
        91           45.500000         5.981498156       287.555069510       -23.569016725       -22.179804911         0.187758684
        92           46.000000         5.335934231       256.520172516       -22.880380188       -22.146738799         0.431637049
        93           46.500000         5.262914095       253.009796053       -22.766715135       -22.161759462         0.189423084
        94           47.000000         5.548323396       266.730587933       -23.015269796       -22.199813097         0.188168049
        95           47.500000         5.645423920       271.398607089       -23.065095189       -22.211973989         0.188225031
        96           48.000000         5.358219978       257.591539483       -22.729615431       -22.183459598         0.188287973
        97           48.500000         5.168155597       248.454367651       -22.419834651       -22.150671118         0.188690901
        98           49.000000         5.373394552       258.321043268       -22.609017350       -22.157108104         0.187999964
        99           49.500000         5.912718534       284.248551911       -23.194883602       -22.200434608         0.188333035
       100           50.000000         6.223724100       299.199860895       -23.536582660       -22.232336213         0.189568996
       101           50.500000         5.846530008       281.066598858       -23.169439025       -22.213449696         0.188390970
       102           51.000000         5.183056606       249.170720076       -22.377915961       -22.159778882         0.188117027
       103           51.500000         4.873714841       234.299396797       -21.951722503       -22.126921120         0.187976122
       104           52.000000         5.353787498       257.378452010       -22.379859310       -22.150386295         0.430272102
       105           52.500000         6.255432634       300.724219777       -23.314789431       -22.205834560         0.189352989
       106           53.000000         6.807411253       327.260088532       -23.925808257       -22.235823679         0.189079046
       107           53.500000         6.660661380       320.205222189       -23.759797206       -22.213427239         0.188633680
       108           54.000000         6.058515929       291.257628723       -23.144561610       -22.169406443         0.187503099
       109           54.500000         5.662174398       272.203871045       -22.731960124       -22.154277812         0.187776089
       110           55.000000         5.657645102       271.986129240       -22.749837933       -22.180256815         0.187409878
       111           55.500000         5.745970490       276.232291727       -22.823098898       -22.209511389         0.188429117
       112           56.000000         5.459930547       262.481182305       -22.527930910       -22.200779511         0.187590837
       113           56.500000         4.966410940       238.755677243       -21.995924749       -22.159786075         0.187978029
       114           57.000000         4.870840067       234.161194674       -21.827131831       -22.134270683         0.188168049
       115           57.500000         5.437959803       261.424958858       -22.391646023       -22.159111943         0.188394070
       116           58.000000         6.259664300       300.927653237       -23.313884363       -22.213454753         0.433633804
       117           58.500000         6.691021775       321.664770512       -23.783404946       -22.241155585         0.195789099
       118           59.000000         6.312463239       303.465914090       -23.393607174       -22.212823389         0.188238144
       119           59.500000         5.517834869       265.264879795       -22.571584696       -22.158516120         0.188835859
       120           60.000000         5.149883656       247.575960767       -22.125100523       -22.134556125         0.189319134
       121           60.500000         5.437547456       261.405135612       -22.413355272       -22.162629692         0.190961838
       122           61.000000         6.049879315       290.842431377       -23.025162952       -22.207822735         0.191807985
       123           61.500000         6.319608853       303.809432984       -23.288126036       -22.219598330         0.195173264
       124           62.000000         6.082710903       292.420780060       -23.018100743       -22.189183342         0.189579010
       125           62.500000         5.751516731       276.498922235       -22.657176414       -22.157463654         0.189728975
       126           63.000000         5.770733802       277.422765411       -22.668892714       -22.164476336         0.188894033
       127           63.500000         6.035977865       290.174131851       -22.948802416       -22.201647314         0.188573837
       128           64.000000         6.001423585       288.512966361       -22.952001844       -22.221316153         0.190200090
       129           64.500000         5.450424468       262.024186260       -22.399519138       -22.194067394         0.430680752
       130           65.000000         4.848527008       233.088514677       -21.699419203       -22.144813749         0.190120935
       131           65.500000         4.809076411       231.191963228       -21.577058123       -22.127111040         0.189176083
       132           66.000000         5.507692119       264.777276316       -22.293449915       -22.163974605         0.187730312
       133           66.500000         6.468221894       310.953869374       -23.297316585       -22.219949990         0.188360929
       134           67.000000         6.894394240       331.441716315       -23.749158392       -22.238633106         0.188465834
       135           67.500000         6.529329312       313.891552790       -23.370063168       -22.204475296         0.191841125
       136           68.000000         5.896567272       283.472094697       -22.664506648       -22.157701414         0.189988852
       137           68.500000         5.621764769       270.261214965       -22.321235715       -22.147612565         0.188696146
       138           69.000000         5.795210100       278.599441111       -22.496620838       -22.178874192         0.188733816
       139           69.500000         6.047368326       290.721717899       -22.734794227       -22.208907184         0.190609217
       140           70.000000         5.927957785       284.981164998       -22.593307572       -22.199629715         0.194380999
       141           70.500000         5.538051910       266.236795585       -22.206200014       -22.162682015         0.192718744
       142           71.000000         5.480648251       263.477167026       -22.114056921       -22.145266429         0.195939302
       143           71.500000         5.929585298       285.059406232       -22.567178080       -22.173373572         0.191727877
       144           72.000000         6.498431719       312.406179209       -23.144360213       -22.219015833         0.443889141
       145           72.500000         6.487362032       311.874014072       -23.169529087       -22.229978649         0.194005966
       146           73.000000         5.816944005       279.644278778       -22.483667972       -22.189648267         0.210693836
       147           73.500000         5.110323110       245.674123591       -21.689582649       -22.138134205         0.260165215
       148           74.000000         5.059386076       243.225372138       -21.548757967       -22.128762685         0.194311857
       149           74.500000         5.699681992       274.007014402       -22.203781392       -22.170532651         0.195936918
       150           75.000000         6.507188916       312.827173459       -23.034515776       -22.218376458         0.323000193
       151           75.500000         6.813008598       327.529175811       -23.322673606       -22.223654629         0.194923639
       152           76.000000         6.475832796       311.319756547       -22.982633352       -22.187519022         0.203792334
       153           76.500000         6.067424105       291.685881174       -22.546087474       -22.155972177         0.201765776
       154           77.000000         5.981928654       287.575765341       -22.478871949       -22.164770999         0.206441879
       155           77.500000         6.154139593       295.854649194       -22.655701140       -22.198888410         0.195872068
       156           78.000000         6.063414685       291.493131973       -22.580789202       -22.211809716         0.189877033
       157           78.500000         5.644974498       271.377001506       -22.068276012       -22.182147807         0.191283226
       158           79.000000         5.193570199       249.676151451       -21.552582301       -22.140567102         0.204681873
       159           79.500000         5.333200511       256.388751392       -21.643941609       -22.136390552         0.205206156
       160           80.000000         6.090068847       292.774506503       -22.399367068       -22.180023607         0.514621973
       161           80.500000         6.784037899       326.136435837       -23.163516483       -22.228120872         0.201251984
       162           81.000000         6.776008227       325.750416685       -23.220340064       -22.230357111         0.196408749
       163           81.500000         6.164119427       296.334420608       -22.543695234       -22.185127976         0.191583157
       164           82.000000         5.466626054       262.803062729       -21.809417879       -22.140519291         0.190533161
       165           82.500000         5.345902708       256.999397953       -21.682806072       -22.141401747         0.196721792
       166           83.000000         5.810168825       279.318568158       -22.156837585       -22.181536589         0.209164143
       167           83.500000         6.241147572       300.037478423       -22.639610532       -22.213093257         0.199289083
       168           84.000000         6.259779274       300.933180516       -22.661899915       -22.202475997         0.194932938
       169           84.500000         6.000287979       288.458373135       -22.376119977       -22.167664117         0.196681023
       170           85.000000         5.925374915       284.856995874       -22.289005214       -22.154538126         0.191539764
       171           85.500000         6.168424139       296.541365689       -22.589999921       -22.181705790         0.191559076
       172           86.000000         6.439433383       309.569887988       -22.879583295       -22.217444409         0.198483944
       173           86.500000         6.182571826       297.221502846       -22.636827278       -22.216130681         0.201999187
       174           87.000000         5.492339975       264.039236033       -21.889246298       -22.172590142         0.204844952
       175           87.500000         4.979952866       239.406692967       -21.281991120       -22.130751385         0.202819824
       176           88.000000         5.195268415       249.757791671       -21.433058167       -22.136470153         0.203187227
       177           88.500000         6.014832731       289.157598830       -22.257988785       -22.186112017         0.203222990
       178           89.000000         6.700805847       322.135130843       -23.011604219       -22.228587841         0.463531733
       179           89.500000         6.766364339       325.286795583       -23.060597705       -22.221970740         0.191662073
       180           90.000000         6.244821629       300.214105381       -22.499204491       -22.178161414         0.192842007
       181           90.500000         5.720052431       274.986304685       -21.976066998       -22.147356328         0.192896128
       182           91.000000         5.667048670       272.438197200       -21.950697632       -22.160487942         0.192144156
       183           91.500000         5.972824383       287.138085793       -22.236028685       -22.196137420         0.201058626
       184           92.000000         6.051492838       290.920000027       -22.310012603       -22.207962892         0.193270206
       185           92.500000         5.759761938       276.895303053       -21.998106753       -22.180378683         0.191886902
       186           93.000000         5.535527509       266.115437338       -21.703815419       -22.147327150         0.221690893
       187           93.500000         5.739426858       275.917712623       -21.908683647       -22.152045566         0.216027260
       188           94.000000         6.326479508       304.139733426       -22.536295421       -22.194904707         0.214065790
       189           94.500000         6.658461483       320.099464158       -22.951205678       -22.230205231         0.228545189
       190           95.000000         6.320254933       303.840492688       -22.636957716       -22.217127670         0.215405941
       191           95.500000         5.548336336       266.731209994       -21.795858921       -22.166637472         0.212258101
       192           96.000000         5.018105147       241.240829105       -21.178225594       -22.130410326         0.204096794
       193           96.500000         5.205868935       250.267402001       -21.321579605       -22.144850515         0.202987909
       194           97.000000         5.913988553       284.309606920       -22.016099791       -22.192133771         0.472945213
       195           97.500000         6.452551152       310.200512755       -22.556567500       -22.220780331         0.199381113
       196           98.000000         6.458421679       310.482733001       -22.507497063       -22.203457273         0.202557802
       197           98.500000         6.110141294       293.739471087       -22.114636296       -22.165781179         0.207771063
       198           99.000000         5.936022036       285.368846507       -21.930122656       -22.154137617         0.201283932
       199           99.500000         6.131860584       294.783606134       -22.126747218       -22.180912347         0.200306892
       200          100.000000         6.300589142       302.895077712       -22.314011414       -22.210768876         0.228781223
       201          100.500000         6.047909647       290.747741400       -22.056581835       -22.203245849         0.249520063
       202          101.000000         5.513554283       265.059094512       -21.469602365       -22.161944932         0.217114925
       203          101.500000         5.248095242       252.297393179       -21.162754270       -22.132593695         0.216790915
       204          102.000000         5.650080677       271.622476422       -21.566060925       -22.151467884         0.206139088
       205          102.500000         6.427772175       309.009286022       -22.394999116       -22.202582674         0.202856779
       206          103.000000         6.828324309       328.265464615       -22.886815988       -22.233247758         0.191981077
       207          103.500000         6.541167069       314.460642173       -22.592169540       -22.212124692         0.192771196
       208          104.000000         5.899622994       283.618995774       -21.826973108       -22.162842586         0.208098888
       209          104.500000         5.451587298       262.080088217       -21.316049737       -22.137003275         0.212236166
       210          105.000000         5.603838103       269.399406861       -21.447393763       -22.158245540         0.200428724
       211          105.500000         6.037105900       290.228361083       -21.912982068       -22.197439896         0.466511250
       212          106.000000         6.250775442       300.500329478       -22.134792912       -22.208440978         0.198553801
       213          106.500000         6.114676614       293.957502444       -21.945808758       -22.181449879         0.210843086
       214          107.000000         5.970428683       287.022914692       -21.736206448       -22.152850953         0.217476130
       215          107.500000         6.186378852       297.404522143       -21.919515240       -22.160902089         0.191756725
       216          108.000000         6.583105258       316.476782377       -22.371791439       -22.199366343         0.197406292
       217          108.500000         6.734611111       323.760288111       -22.525089269       -22.222938063         0.195815802
       218          109.000000         6.266477029       301.255168976       -22.038731386       -22.200152060         0.196161032
       219          109.500000         5.518772043       265.309933560       -21.255826016       -22.151118410         0.193222046
       220          110.000000         5.206563245       250.300780309       -20.904907731       -22.127408946         0.190538883
       221          110.500000         5.690269733       273.554528640       -21.336645314       -22.155111181         0.196506262
       222          111.000000         6.444292582       309.803489541       -22.138308875       -22.205498370         0.197036743
       223          111.500000         6.838461978       328.752823829       -22.557925420       -22.226451042         0.189934969
       224          112.000000         6.573303265       316.005560482       -22.278811333       -22.199596715         0.189283133
       225          112.500000         6.018904743       289.353357061       -21.698064818       -22.158819768         0.192266941
       226          113.000000         5.787224334       278.215532670       -21.417169012       -22.149412735         0.189931154
       227          113.500000         5.924544493       284.817074089       -21.580039345       -22.177335362         0.190978050