 DBCSR| Multiplication driver                                               BLAS
 DBCSR| Multrec recursion limit                                              512
 DBCSR| Multiplication stack size                                           1000
 DBCSR| Maximum elements for images                                    UNLIMITED
 DBCSR| Multiplicative factor virtual images                                   1
 DBCSR| Multiplication size stacks                                             3


  **** **** ******  **  PROGRAM STARTED AT               2019-08-15 10:37:18.821
 ***** ** ***  *** **   PROGRAM STARTED ON                          S4A-Q177HV29
 **    ****   ******    PROGRAM STARTED BY                              sllabres
 ***** **    ** ** **   PROGRAM PROCESS ID                                 52217
  **** **  *******  **  PROGRAM STARTED IN /Users/sllabres/Work/github_repos/CP2
                                           K_tutorials_for_biological_simulation
                                           s/AMBER_NMA/section3/CP2K

 CP2K| version string:                                          CP2K version 5.1
 CP2K| source code revision number:                                    svn:18091
 CP2K| cp2kflags: no_statm_access accelerate                                    
 CP2K| is freely available from                            https://www.cp2k.org/
 CP2K| Program compiled at                          Wed Apr 10 16:53:40 BST 2019
 CP2K| Program compiled on                                          S4A-Q177HV29
 CP2K| Program compiled for                       Darwin-IntelMacintosh-gfortran
 CP2K| Data directory path          /Users/sllabres/Work/BioExcel2/cp2k-5.1/data
 CP2K| Input file name                                cp2k_qmmm_minimisation.inp

 GLOBAL| Force Environment number                                              1
 GLOBAL| Basis set file name                                           BASIS_SET
 GLOBAL| Potential file name                                           POTENTIAL
 GLOBAL| MM Potential file name                                     MM_POTENTIAL
 GLOBAL| Coordinate file name                                         NMA.inpcrd
 GLOBAL| Method name                                                        CP2K
 GLOBAL| Project name                                                         EM
 GLOBAL| Preferred FFT library                                             FFTW3
 GLOBAL| Preferred diagonalization lib.                                       SL
 GLOBAL| Run type                                                        GEO_OPT
 GLOBAL| All-to-all communication in single precision                          F
 GLOBAL| FFTs using library dependent lengths                                  F
 GLOBAL| Global print level                                                  LOW
 GLOBAL| Total number of message passing processes                             1
 GLOBAL| Number of threads for this process                                    1
 GLOBAL| This output is from process                                           0
 GLOBAL| CPU model name : UNKNOWN

 MEMORY| system memory details [Kb]
 MEMORY|                        rank 0           min           max       average
 MEMORY| MemTotal                    0             0             0             0
 MEMORY| MemFree                     0             0             0             0
 MEMORY| Buffers                     0             0             0             0
 MEMORY| Cached                      0             0             0             0
 MEMORY| Slab                        0             0             0             0
 MEMORY| SReclaimable                0             0             0             0
 MEMORY| MemLikelyFree               0             0             0             0

 WARNING : FFT library FFTW3 is not available  Trying FFTSG as a default


                      ************* ******** ***********   
                     ************* **********************  
                     ****     **** ****      ***********   
                     ******** ****  *******     ****       
                     *******  ****   *******   ****        
                     ****     ****       ****  ****        
                     ****     **** **********  ****        
                      ****     **** ********    ****       
                     FRONTIERS IN SIMULATION TECHNOLOGY    
                                                           
                        C.J. Mundy, S. Balasubramanian,    
                     Ken Bagchi, J. Hutter, Ari Seitsonen  
                      IFW Kuo, T. Laino, J. VandeVondele   
                                 Version 1.0               

                                                           


 EWALD| Summation is done by:                                               SPME
 EWALD| Alpha parameter [       ANGSTROM^-1]                              0.4000
 EWALD| Real Space Cutoff [          ANGSTROM]                            8.4348
 EWALD| G-space max. Miller index                         80        80        80
 EWALD| Spline interpolation order                                             6

 *** WARNING in topology_amber.F:235 :: No VELOCITY information found in ***
 *** CRD file. Ignoring BOX information. Please provide the BOX          ***
 *** information directly from the main CP2K input!                      ***


 *** WARNING in topology_amber.F:260 :: BOX information missing in CRD ***
 *** file.                                                             ***


 FORCEFIELD| WARNING: A non Critical ForceField parameter is missing! CP2K GOES!
 FORCEFIELD| Non critical parameters are:Urey-Bradley,Torsions,Impropers, Opbends and 1-4
 FORCEFIELD| All missing parameters will not contribute to the potential energy!
 FORCEFIELD| Activate the print key FF_INFO to have a list of missing parameters

 CHARGE_INFO| Total Charge of the Classical System:                     0.000000

 SPLINE_INFO| Generating 55 splines for NONBONDED14 interactions 
              Due to 10 different atomic kinds
  ...5  ...10  ...15  ...20  ...25  ...30  ...35  ...40  ...45  ...50  ...55

 SPLINE_INFO| Number of unique splines computed:            18
 SPLINE_INFO| Done

 SPLINE_INFO| Generating 55 splines for NONBONDED interactions 
              Due to 10 different atomic kinds
  ...5  ...10  ...15  ...20  ...25  ...30  ...35  ...40  ...45  ...50  ...55

 SPLINE_INFO| Number of unique splines computed:            18
 SPLINE_INFO| Done


              #####   #####        # #     # ######  ######   #####  
             #     # #     #      #  ##    # #     # #     # #     # 
             #     # #           #   # #   # #     # #     # #     # 
             #     #  #####     #    #  #  # #     # #     # #     # 
             #   # #       #   #     #   # # #     # #     # #     # 
             #    #  #     #  #      #    ## #     # #     # #     # 
              #### #  #####  #       #     # ######  ######   #####  
                                                                     
                              T. Laino and J. Hutter                 
                                                                     
                                   2008 - 2015                       


 SEMIEMPIRICAL|                             Coulomb Integral cutoff/taper values
 SEMIEMPIRICAL| Cutoff [a.u.]                                             18.897
 SEMIEMPIRICAL| Taper  [a.u.]                                             18.897
 SEMIEMPIRICAL| Range  [a.u.]                                              0.000


 SEMIEMPIRICAL|                            Exchange Integral cutoff/taper values
 SEMIEMPIRICAL| Cutoff [a.u.]                                             18.897
 SEMIEMPIRICAL| Taper  [a.u.]                                             18.897
 SEMIEMPIRICAL| Range  [a.u.]                                              0.000



 SCF PARAMETERS         Density guess:                                    ATOMIC
                        --------------------------------------------------------
                        max_scf:                                              30
                        max_scf_history:                                       0
                        max_diis:                                              4
                        --------------------------------------------------------
                        eps_scf:                                        1.00E-06
                        eps_scf_history:                                0.00E+00
                        eps_diis:                                       1.00E-01
                        eps_eigval:                                     1.00E-05
                        --------------------------------------------------------
                        level_shift [a.u.]:                                 0.00
                        --------------------------------------------------------
                        Outer loop SCF in use 
                        No variables optimised in outer loop
                        eps_scf                                         1.00E-06
                        max_scf                                               10
                        No outer loop optimization
                        step_size                                       5.00E-01

 *******************************************************************************
 *******************************************************************************
 **                                                                           **
 **             #######  ##     ## ##     ## ##     ##                        **
 **            ##     ## ###   ### ###   ### ###   ###                        **
 **            ##     ## #### #### #### #### #### ####                        **
 **            ##     ## ## ### ## ## ### ## ## ### ##                        **
 **            ##  ## ## ##     ## ##     ## ##     ##                        **
 **            ##    ##  ##     ## ##     ## ##     ##  T.Laino and F.Mohamed **
 **             ##### ## ##     ## ##     ## ##     ##  2005 - 2015           **
 **                                                                           **
 **                                                     Calculation Started.. **
 *******************************************************************************
 *******************************************************************************

  Translating the system in order to center the QM fragment in the QM box.

 *******************************************************************************
 ***                     STARTING GEOMETRY OPTIMIZATION                      ***
 ***                                 L-BFGS                                  ***
 *******************************************************************************

 --------------------------
 OPTIMIZATION STEP:      1
 --------------------------

  Translating the system in order to center the QM fragment in the QM box.

 Number of electrons:                                                         30
 Number of occupied orbitals:                                                 15
 Number of molecular orbitals:                                                15

 Number of orbital functions:                                                 27
 Number of independent orbital functions:                                     27

 Extrapolation method: initial_guess


 SCF WAVEFUNCTION OPTIMIZATION

  ----------------------------------- OT ---------------------------------------
  Minimizer      : DIIS                : direct inversion
                                         in the iterative subspace
                                         using   7 DIIS vectors
                                         safer DIIS on
  Preconditioner : FULL_SINGLE_INVERSE : inversion of 
                                         H + eS - 2*(Sc)(c^T*H*c+const)(Sc)^T
  Precond_solver : DEFAULT
  stepsize       :    0.08000000                  energy_gap     :    0.08000000
  eps_taylor     :   0.10000E-15                  max_taylor     :             4
  ----------------------------------- OT ---------------------------------------

  Step     Update method      Time    Convergence         Total energy    Change
  ------------------------------------------------------------------------------
     1 OT DIIS     0.80E-01    0.0     0.30866039       -27.7282299114 -2.77E+01
     2 OT DIIS     0.80E-01    0.0     0.17206608       -29.9320791216 -2.20E+00
     3 OT DIIS     0.80E-01    0.0     0.14682124       -30.7396487629 -8.08E-01
     4 OT DIIS     0.80E-01    0.0     0.12881274       -31.5315971456 -7.92E-01
     5 OT DIIS     0.80E-01    0.0     0.13464744       -31.8746256533 -3.43E-01
     6 OT DIIS     0.80E-01    0.0     0.13364328       -31.9161374916 -4.15E-02
     7 OT DIIS     0.80E-01    0.0     0.12573800       -32.4484664019 -5.32E-01
     8 OT DIIS     0.80E-01    0.0     0.11068088       -33.0597920912 -6.11E-01
     9 OT DIIS     0.80E-01    0.0     0.08150507       -33.5077671602 -4.48E-01
    10 OT SD       0.80E-01    0.0     0.05907076       -33.5367951062 -2.90E-02
    11 OT DIIS     0.80E-01    0.0     0.05243072       -33.6364770149 -9.97E-02
    12 OT SD       0.80E-01    0.0     0.07052338       -33.6253031678  1.12E-02
    13 OT SD       0.80E-01    0.0     0.05828900       -33.7694259986 -1.44E-01
    14 OT DIIS     0.80E-01    0.0     0.05308315       -33.8737027362 -1.04E-01
    15 OT DIIS     0.80E-01    0.0     0.05010103       -33.8830680165 -9.37E-03
    16 OT SD       0.80E-01    0.0     0.05135563       -33.8906763719 -7.61E-03
    17 OT SD       0.80E-01    0.0     0.04943170       -33.9739256833 -8.32E-02
    18 OT SD       0.80E-01    0.0     0.04709818       -34.0509908665 -7.71E-02
    19 OT DIIS     0.80E-01    0.0     0.04409319       -34.1204649512 -6.95E-02
    20 OT DIIS     0.80E-01    0.0     0.04491059       -34.1790369655 -5.86E-02
    21 OT DIIS     0.80E-01    0.0     0.04409415       -34.1835324351 -4.50E-03
    22 OT DIIS     0.80E-01    0.0     0.04358685       -34.1869573617 -3.42E-03
    23 OT DIIS     0.80E-01    0.0     0.02954788       -34.3220067428 -1.35E-01
    24 OT DIIS     0.80E-01    0.0     0.01853521       -34.3870579835 -6.51E-02
    25 OT DIIS     0.80E-01    0.0     0.01338471       -34.4036769451 -1.66E-02
    26 OT DIIS     0.80E-01    0.0     0.01456639       -34.4055319764 -1.86E-03
    27 OT DIIS     0.80E-01    0.0     0.00793205       -34.4192905312 -1.38E-02
    28 OT DIIS     0.80E-01    0.0     0.00694241       -34.4235503495 -4.26E-03
    29 OT DIIS     0.80E-01    0.0     0.00546001       -34.4272401582 -3.69E-03
    30 OT DIIS     0.80E-01    0.0     0.00439799       -34.4297112657 -2.47E-03

  Leaving inner SCF loop after reaching    30 steps.


  Core-core repulsion energy [eV]:                           2380.93017594611183
  Core Hamiltonian energy [eV]:                             -1434.76806979055937
  Two-electron integral energy [eV]:                        -3729.96560250917901
  Electronic energy [eV]:                                   -3299.75087104514841
  QM/MM Electrostatic energy:                                  -0.66367055480633

  Total energy [eV]:                                         -936.88008932016578

  Atomic reference energy [eV]:                               917.68881409010157
  Heat of formation [kcal/mol]:                              -442.56135546208901

  outer SCF iter =    1 RMS gradient =   0.44E-02 energy =        -34.4297112657

  ----------------------------------- OT ---------------------------------------
  Minimizer      : DIIS                : direct inversion
                                         in the iterative subspace
                                         using   7 DIIS vectors
                                         safer DIIS on
  Preconditioner : FULL_SINGLE_INVERSE : inversion of 
                                         H + eS - 2*(Sc)(c^T*H*c+const)(Sc)^T
  Precond_solver : DEFAULT
  stepsize       :    0.08000000                  energy_gap     :    0.08000000
  eps_taylor     :   0.10000E-15                  max_taylor     :             4
  ----------------------------------- OT ---------------------------------------

  Step     Update method      Time    Convergence         Total energy    Change
  ------------------------------------------------------------------------------
     1 OT DIIS     0.80E-01    0.0     0.01462719       -34.4323497199 -2.64E-03
     2 OT DIIS     0.80E-01    0.0     0.01112666       -34.4384267877 -6.08E-03
     3 OT DIIS     0.80E-01    0.0     0.00446321       -34.4469755347 -8.55E-03
     4 OT DIIS     0.80E-01    0.0     0.00206394       -34.4486434335 -1.67E-03
     5 OT DIIS     0.80E-01    0.0     0.00111491       -34.4490543167 -4.11E-04
     6 OT DIIS     0.80E-01    0.0     0.00068775       -34.4491578608 -1.04E-04
     7 OT DIIS     0.80E-01    0.0     0.00038070       -34.4492091717 -5.13E-05
     8 OT DIIS     0.80E-01    0.0     0.00019740       -34.4492230905 -1.39E-05
     9 OT DIIS     0.80E-01    0.0     0.00008573       -34.4492273040 -4.21E-06
    10 OT DIIS     0.80E-01    0.0     0.00006493       -34.4492277277 -4.24E-07
    11 OT DIIS     0.80E-01    0.0     0.00003690       -34.4492281244 -3.97E-07
    12 OT DIIS     0.80E-01    0.0     0.00001976       -34.4492282742 -1.50E-07
    13 OT DIIS     0.80E-01    0.0     0.00001563       -34.4492282991 -2.49E-08
    14 OT DIIS     0.80E-01    0.0     0.00000994       -34.4492283235 -2.44E-08
    15 OT DIIS     0.80E-01    0.0     0.00000406       -34.4492283370 -1.35E-08
    16 OT DIIS     0.80E-01    0.0     0.00000285       -34.4492283382 -1.13E-09
    17 OT DIIS     0.80E-01    0.0     0.00000156       -34.4492283389 -6.84E-10
    18 OT DIIS     0.80E-01    0.0     0.00000087       -34.4492283391 -2.63E-10

  *** SCF run converged in    18 steps ***


  Core-core repulsion energy [eV]:                           2380.93017594611183
  Core Hamiltonian energy [eV]:                             -1435.10217781074039
  Two-electron integral energy [eV]:                        -3730.31736987561999
  Electronic energy [eV]:                                   -3300.26086274855061
  QM/MM Electrostatic energy:                                  -0.66444577721244

  Total energy [eV]:                                         -937.41117589803412

  Atomic reference energy [eV]:                               917.68881409010157
  Heat of formation [kcal/mol]:                              -454.80850386423998

  outer SCF iter =    2 RMS gradient =   0.87E-06 energy =        -34.4492283391
  outer SCF loop converged in   2 iterations or   48 steps


 ENERGY| Total FORCE_EVAL ( QMMM ) energy (a.u.):            -53.238935571945731


  Translating the system in order to center the QM fragment in the QM box.

 Number of electrons:                                                         30
 Number of occupied orbitals:                                                 15
 Number of molecular orbitals:                                                15

 Number of orbital functions:                                                 27
 Number of independent orbital functions:                                     27

 Extrapolation method: ASPC


 SCF WAVEFUNCTION OPTIMIZATION

  ----------------------------------- OT ---------------------------------------
  Minimizer      : DIIS                : direct inversion
                                         in the iterative subspace
                                         using   7 DIIS vectors
                                         safer DIIS on
  Preconditioner : FULL_SINGLE_INVERSE : inversion of 
                                         H + eS - 2*(Sc)(c^T*H*c+const)(Sc)^T
  Precond_solver : DEFAULT
  stepsize       :    0.08000000                  energy_gap     :    0.08000000
  eps_taylor     :   0.10000E-15                  max_taylor     :             4
  ----------------------------------- OT ---------------------------------------

  Step     Update method      Time    Convergence         Total energy    Change
  ------------------------------------------------------------------------------
     1 OT DIIS     0.80E-01    0.0     0.01173394       -34.4575462044 -3.45E+01
     2 OT DIIS     0.80E-01    0.0     0.00823246       -34.4613050432 -3.76E-03
     3 OT DIIS     0.80E-01    0.0     0.00390578       -34.4651032718 -3.80E-03
     4 OT DIIS     0.80E-01    0.0     0.00175013       -34.4663521620 -1.25E-03
     5 OT DIIS     0.80E-01    0.0     0.00099595       -34.4666267564 -2.75E-04
     6 OT DIIS     0.80E-01    0.0     0.00056020       -34.4667187564 -9.20E-05
     7 OT DIIS     0.80E-01    0.0     0.00035488       -34.4667486735 -2.99E-05
     8 OT DIIS     0.80E-01    0.0     0.00018634       -34.4667617021 -1.30E-05
     9 OT DIIS     0.80E-01    0.0     0.00008600       -34.4667654302 -3.73E-06
    10 OT DIIS     0.80E-01    0.0     0.00006127       -34.4667659283 -4.98E-07
    11 OT DIIS     0.80E-01    0.0     0.00002496       -34.4667662936 -3.65E-07
    12 OT DIIS     0.80E-01    0.0     0.00001157       -34.4667663465 -5.30E-08
    13 OT DIIS     0.80E-01    0.0     0.00000816       -34.4667663544 -7.87E-09
    14 OT DIIS     0.80E-01    0.0     0.00000409       -34.4667663603 -5.86E-09
    15 OT DIIS     0.80E-01    0.0     0.00000234       -34.4667663616 -1.32E-09
    16 OT DIIS     0.80E-01    0.0     0.00000146       -34.4667663620 -4.06E-10
    17 OT DIIS     0.80E-01    0.0     0.00000085       -34.4667663622 -1.82E-10

  *** SCF run converged in    17 steps ***


  Core-core repulsion energy [eV]:                           2369.71597783579955
  Core Hamiltonian energy [eV]:                             -1433.41090595630931
  Two-electron integral energy [eV]:                        -3711.88140426202290
  Electronic energy [eV]:                                   -3289.35160808732053
  QM/MM Electrostatic energy:                                  -0.67077733422552

  Total energy [eV]:                                         -937.88840977540940

  Atomic reference energy [eV]:                               917.68881409010157
  Heat of formation [kcal/mol]:                              -465.81377939240110

  outer SCF iter =    1 RMS gradient =   0.85E-06 energy =        -34.4667663622
  outer SCF loop converged in   1 iterations or   17 steps


 ENERGY| Total FORCE_EVAL ( QMMM ) energy (a.u.):            -53.975028745331926


 --------  Informations at step =     1 ------------
  Optimization Method        =                LBFGS
  Total Energy               =       -53.9750287453
  Real energy change         =        -0.7360931734
  Decrease in energy         =                  YES
  Used time                  =                1.382

  Convergence check :
  Max. step size             =         0.1050424061
  Conv. limit for step size  =         0.0030000000
  Convergence in step size   =                   NO
  RMS step size              =         0.0087237320
  Conv. limit for RMS step   =         0.0015000000
  Convergence in RMS step    =                   NO
  Max. gradient              =         0.0290795394
  Conv. limit for gradients  =         0.0004500000
  Conv. for gradients        =                   NO
  RMS gradient               =         0.0056551287
  Conv. limit for RMS grad.  =         0.0003000000
  Conv. for gradients        =                   NO
 ---------------------------------------------------

 --------------------------
 OPTIMIZATION STEP:      2
 --------------------------

  Translating the system in order to center the QM fragment in the QM box.

 Number of electrons:                                                         30
 Number of occupied orbitals:                                                 15
 Number of molecular orbitals:                                                15

 Number of orbital functions:                                                 27
 Number of independent orbital functions:                                     27

 Extrapolation method: ASPC


 SCF WAVEFUNCTION OPTIMIZATION

  ----------------------------------- OT ---------------------------------------
  Minimizer      : DIIS                : direct inversion
                                         in the iterative subspace
                                         using   7 DIIS vectors
                                         safer DIIS on
  Preconditioner : FULL_SINGLE_INVERSE : inversion of 
                                         H + eS - 2*(Sc)(c^T*H*c+const)(Sc)^T
  Precond_solver : DEFAULT
  stepsize       :    0.08000000                  energy_gap     :    0.08000000
  eps_taylor     :   0.10000E-15                  max_taylor     :             4
  ----------------------------------- OT ---------------------------------------

  Step     Update method      Time    Convergence         Total energy    Change
  ------------------------------------------------------------------------------
     1 OT DIIS     0.80E-01    0.0     0.01121567       -34.4651598506 -3.45E+01
     2 OT DIIS     0.80E-01    0.0     0.00775381       -34.4685720348 -3.41E-03
     3 OT DIIS     0.80E-01    0.0     0.00361081       -34.4718556161 -3.28E-03
     4 OT DIIS     0.80E-01    0.0     0.00172734       -34.4728849814 -1.03E-03
     5 OT DIIS     0.80E-01    0.0     0.00099241       -34.4731451473 -2.60E-04
     6 OT DIIS     0.80E-01    0.0     0.00047781       -34.4732524549 -1.07E-04
     7 OT DIIS     0.80E-01    0.0     0.00032729       -34.4732693567 -1.69E-05
     8 OT DIIS     0.80E-01    0.0     0.00016647       -34.4732810519 -1.17E-05
     9 OT DIIS     0.80E-01    0.0     0.00007995       -34.4732839492 -2.90E-06
    10 OT DIIS     0.80E-01    0.0     0.00005599       -34.4732843581 -4.09E-07
    11 OT DIIS     0.80E-01    0.0     0.00002349       -34.4732846566 -2.98E-07
    12 OT DIIS     0.80E-01    0.0     0.00001176       -34.4732847019 -4.53E-08
    13 OT DIIS     0.80E-01    0.0     0.00000623       -34.4732847133 -1.13E-08
    14 OT DIIS     0.80E-01    0.0     0.00000415       -34.4732847156 -2.32E-09
    15 OT DIIS     0.80E-01    0.0     0.00000228       -34.4732847169 -1.35E-09
    16 OT DIIS     0.80E-01    0.0     0.00000136       -34.4732847173 -3.71E-10
    17 OT DIIS     0.80E-01    0.0     0.00000064       -34.4732847175 -1.81E-10

  *** SCF run converged in    17 steps ***


  Core-core repulsion energy [eV]:                           2357.30089389826298
  Core Hamiltonian energy [eV]:                             -1432.50769793039649
  Two-electron integral energy [eV]:                        -3688.88712306833895
  Electronic energy [eV]:                                   -3276.95125946456619
  QM/MM Electrostatic energy:                                  -0.67675417664611

  Total energy [eV]:                                         -938.06578324354825

  Atomic reference energy [eV]:                               917.68881409010157
  Heat of formation [kcal/mol]:                              -469.90410906260325

  outer SCF iter =    1 RMS gradient =   0.64E-06 energy =        -34.4732847175
  outer SCF loop converged in   1 iterations or   17 steps


 ENERGY| Total FORCE_EVAL ( QMMM ) energy (a.u.):            -54.437582316196803


 --------  Informations at step =     2 ------------
  Optimization Method        =                LBFGS
  Total Energy               =       -54.4375823162
  Real energy change         =        -0.4625535709
  Decrease in energy         =                  YES
  Used time                  =                0.404

  Convergence check :
  Max. step size             =         0.0364122662
  Conv. limit for step size  =         0.0030000000
  Convergence in step size   =                   NO
  RMS step size              =         0.0094352521
  Conv. limit for RMS step   =         0.0015000000
  Convergence in RMS step    =                   NO
  Max. gradient              =         0.0392497959
  Conv. limit for gradients  =         0.0004500000
  Conv. for gradients        =                   NO
  RMS gradient               =         0.0041651886
  Conv. limit for RMS grad.  =         0.0003000000
  Conv. for gradients        =                   NO
 ---------------------------------------------------

 --------------------------
 OPTIMIZATION STEP:      3
 --------------------------

  Translating the system in order to center the QM fragment in the QM box.

 Number of electrons:                                                         30
 Number of occupied orbitals:                                                 15
 Number of molecular orbitals:                                                15

 Number of orbital functions:                                                 27
 Number of independent orbital functions:                                     27

 Extrapolation method: ASPC


 SCF WAVEFUNCTION OPTIMIZATION

  ----------------------------------- OT ---------------------------------------
  Minimizer      : DIIS                : direct inversion
                                         in the iterative subspace
                                         using   7 DIIS vectors
                                         safer DIIS on
  Preconditioner : FULL_SINGLE_INVERSE : inversion of 
                                         H + eS - 2*(Sc)(c^T*H*c+const)(Sc)^T
  Precond_solver : DEFAULT
  stepsize       :    0.08000000                  energy_gap     :    0.08000000
  eps_taylor     :   0.10000E-15                  max_taylor     :             4
  ----------------------------------- OT ---------------------------------------

  Step     Update method      Time    Convergence         Total energy    Change
  ------------------------------------------------------------------------------
     1 OT DIIS     0.80E-01    0.0     0.01721265       -34.4376663426 -3.44E+01
     2 OT DIIS     0.80E-01    0.0     0.01225708       -34.4458289693 -8.16E-03
     3 OT DIIS     0.80E-01    0.0     0.00524456       -34.4545733355 -8.74E-03
     4 OT DIIS     0.80E-01    0.0     0.00195760       -34.4568484270 -2.28E-03
     5 OT DIIS     0.80E-01    0.0     0.00100871       -34.4571789968 -3.31E-04
     6 OT DIIS     0.80E-01    0.0     0.00064439       -34.4572332555 -5.43E-05
     7 OT DIIS     0.80E-01    0.0     0.00038192       -34.4572699259 -3.67E-05
     8 OT DIIS     0.80E-01    0.0     0.00018648       -34.4572852669 -1.53E-05
     9 OT DIIS     0.80E-01    0.0     0.00010814       -34.4572885234 -3.26E-06
    10 OT DIIS     0.80E-01    0.0     0.00007364       -34.4572895741 -1.05E-06
    11 OT DIIS     0.80E-01    0.0     0.00004775       -34.4572900486 -4.75E-07
    12 OT DIIS     0.80E-01    0.0     0.00002274       -34.4572903011 -2.52E-07
    13 OT DIIS     0.80E-01    0.0     0.00001638       -34.4572903349 -3.38E-08
    14 OT DIIS     0.80E-01    0.0     0.00000763       -34.4572903608 -2.59E-08
    15 OT DIIS     0.80E-01    0.0     0.00000573       -34.4572903642 -3.41E-09
    16 OT DIIS     0.80E-01    0.0     0.00000284       -34.4572903674 -3.21E-09
    17 OT DIIS     0.80E-01    0.0     0.00000217       -34.4572903679 -4.54E-10
    18 OT DIIS     0.80E-01    0.0     0.00000162       -34.4572903682 -3.17E-10
    19 OT DIIS     0.80E-01    0.0     0.00000127       -34.4572903684 -1.75E-10
    20 OT DIIS     0.80E-01    0.0     0.00000084       -34.4572903685 -1.56E-10

  *** SCF run converged in    20 steps ***


  Core-core repulsion energy [eV]:                           2360.17343252086175
  Core Hamiltonian energy [eV]:                             -1432.86435455715309
  Two-electron integral energy [eV]:                        -3693.09813015962618
  Electronic energy [eV]:                                   -3279.41341963696641
  QM/MM Electrostatic energy:                                  -0.67584095888554

  Total energy [eV]:                                         -937.63055487432177

  Atomic reference energy [eV]:                               917.68881409010157
  Heat of formation [kcal/mol]:                              -459.86750364105922

  outer SCF iter =    1 RMS gradient =   0.84E-06 energy =        -34.4572903685
  outer SCF loop converged in   1 iterations or   20 steps


 ENERGY| Total FORCE_EVAL ( QMMM ) energy (a.u.):            -54.790828654896721


 --------  Informations at step =     3 ------------
  Optimization Method        =                LBFGS
  Total Energy               =       -54.7908286549
  Real energy change         =        -0.3532463387
  Decrease in energy         =                  YES
  Used time                  =                0.425

  Convergence check :
  Max. step size             =         0.0991827766
  Conv. limit for step size  =         0.0030000000
  Convergence in step size   =                   NO
  RMS step size              =         0.0128690649
  Conv. limit for RMS step   =         0.0015000000
  Convergence in RMS step    =                   NO
  Max. gradient              =         0.1765361097
  Conv. limit for gradients  =         0.0004500000
  Conv. for gradients        =                   NO
  RMS gradient               =         0.0042023015
  Conv. limit for RMS grad.  =         0.0003000000
  Conv. for gradients        =                   NO
 ---------------------------------------------------

 --------------------------
 OPTIMIZATION STEP:      4
 --------------------------

  Translating the system in order to center the QM fragment in the QM box.

 Number of electrons:                                                         30
 Number of occupied orbitals:                                                 15
 Number of molecular orbitals:                                                15

 Number of orbital functions:                                                 27
 Number of independent orbital functions:                                     27

 Extrapolation method: ASPC


 SCF WAVEFUNCTION OPTIMIZATION

  ----------------------------------- OT ---------------------------------------
  Minimizer      : DIIS                : direct inversion
                                         in the iterative subspace
                                         using   7 DIIS vectors
                                         safer DIIS on
  Preconditioner : FULL_SINGLE_INVERSE : inversion of 
                                         H + eS - 2*(Sc)(c^T*H*c+const)(Sc)^T
  Precond_solver : DEFAULT
  stepsize       :    0.08000000                  energy_gap     :    0.08000000
  eps_taylor     :   0.10000E-15                  max_taylor     :             4
  ----------------------------------- OT ---------------------------------------

  Step     Update method      Time    Convergence         Total energy    Change
  ------------------------------------------------------------------------------
     1 OT DIIS     0.80E-01    0.0     0.06272778       -34.2094963664 -3.42E+01
     2 OT DIIS     0.80E-01    0.0     0.03908033       -34.3117767559 -1.02E-01
     3 OT DIIS     0.80E-01    0.0     0.01803909       -34.3815508822 -6.98E-02
     4 OT DIIS     0.80E-01    0.0     0.00858660       -34.4048890374 -2.33E-02
     5 OT DIIS     0.80E-01    0.0     0.00506771       -34.4104405284 -5.55E-03
     6 OT DIIS     0.80E-01    0.0     0.00230325       -34.4125333407 -2.09E-03
     7 OT DIIS     0.80E-01    0.0     0.00135022       -34.4129591881 -4.26E-04
     8 OT DIIS     0.80E-01    0.0     0.00077566       -34.4130680635 -1.09E-04
     9 OT DIIS     0.80E-01    0.0     0.00048799       -34.4131125403 -4.45E-05
    10 OT DIIS     0.80E-01    0.0     0.00021661       -34.4131365951 -2.41E-05
    11 OT DIIS     0.80E-01    0.0     0.00014006       -34.4131400367 -3.44E-06
    12 OT DIIS     0.80E-01    0.0     0.00008280       -34.4131415785 -1.54E-06
    13 OT DIIS     0.80E-01    0.0     0.00005532       -34.4131420534 -4.75E-07
    14 OT DIIS     0.80E-01    0.0     0.00002013       -34.4131423821 -3.29E-07
    15 OT DIIS     0.80E-01    0.0     0.00001388       -34.4131424055 -2.34E-08
    16 OT DIIS     0.80E-01    0.0     0.00000644       -34.4131424216 -1.61E-08
    17 OT DIIS     0.80E-01    0.0     0.00000411       -34.4131424253 -3.68E-09
    18 OT DIIS     0.80E-01    0.0     0.00000259       -34.4131424271 -1.80E-09
    19 OT DIIS     0.80E-01    0.0     0.00000201       -34.4131424275 -4.84E-10
    20 OT DIIS     0.80E-01    0.0     0.00000137       -34.4131424279 -3.91E-10
    21 OT DIIS     0.80E-01    0.0     0.00000080       -34.4131424281 -2.12E-10

  *** SCF run converged in    21 steps ***


  Core-core repulsion energy [eV]:                           2304.61606514211871
  Core Hamiltonian energy [eV]:                             -1429.29282592745494
  Two-electron integral energy [eV]:                        -3587.18354076486639
  Electronic energy [eV]:                                   -3222.88459630988837
  QM/MM Electrostatic energy:                                  -0.66739336928146

  Total energy [eV]:                                         -936.42922832260763

  Atomic reference energy [eV]:                               917.68881409010157
  Heat of formation [kcal/mol]:                              -432.16425303860098

  outer SCF iter =    1 RMS gradient =   0.80E-06 energy =        -34.4131424281
  outer SCF loop converged in   1 iterations or   21 steps


 ENERGY| Total FORCE_EVAL ( QMMM ) energy (a.u.):            -55.048212404506131


 --------  Informations at step =     4 ------------
  Optimization Method        =                LBFGS
  Total Energy               =       -55.0482124045
  Real energy change         =        -0.2573837496
  Decrease in energy         =                  YES
  Used time                  =                0.413

  Convergence check :
  Max. step size             =         0.2772842427
  Conv. limit for step size  =         0.0030000000
  Convergence in step size   =                   NO
  RMS step size              =         0.0165567486
  Conv. limit for RMS step   =         0.0015000000
  Convergence in RMS step    =                   NO
  Max. gradient              =         0.1490620267
  Conv. limit for gradients  =         0.0004500000
  Conv. for gradients        =                   NO
  RMS gradient               =         0.0049733093
  Conv. limit for RMS grad.  =         0.0003000000
  Conv. for gradients        =                   NO
 ---------------------------------------------------

 --------------------------
 OPTIMIZATION STEP:      5
 --------------------------

  Translating the system in order to center the QM fragment in the QM box.

 Number of electrons:                                                         30
 Number of occupied orbitals:                                                 15
 Number of molecular orbitals:                                                15

 Number of orbital functions:                                                 27
 Number of independent orbital functions:                                     27

 Extrapolation method: ASPC


 SCF WAVEFUNCTION OPTIMIZATION

  ----------------------------------- OT ---------------------------------------
  Minimizer      : DIIS                : direct inversion
                                         in the iterative subspace
                                         using   7 DIIS vectors
                                         safer DIIS on
  Preconditioner : FULL_SINGLE_INVERSE : inversion of 
                                         H + eS - 2*(Sc)(c^T*H*c+const)(Sc)^T
  Precond_solver : DEFAULT
  stepsize       :    0.08000000                  energy_gap     :    0.08000000
  eps_taylor     :   0.10000E-15                  max_taylor     :             4
  ----------------------------------- OT ---------------------------------------

  Step     Update method      Time    Convergence         Total energy    Change
  ------------------------------------------------------------------------------
     1 OT DIIS     0.80E-01    0.0     0.07913987       -34.0494366781 -3.40E+01
     2 OT DIIS     0.80E-01    0.0     0.05342694       -34.2186666788 -1.69E-01
     3 OT DIIS     0.80E-01    0.0     0.02267981       -34.3607180155 -1.42E-01
     4 OT DIIS     0.80E-01    0.0     0.01592357       -34.3890066080 -2.83E-02
     5 OT DIIS     0.80E-01    0.0     0.00917065       -34.4120164315 -2.30E-02
     6 OT DIIS     0.80E-01    0.0     0.00370280       -34.4166004282 -4.58E-03
     7 OT DIIS     0.80E-01    0.0     0.00195963       -34.4175846352 -9.84E-04
     8 OT DIIS     0.80E-01    0.0     0.00117907       -34.4177093802 -1.25E-04
     9 OT DIIS     0.80E-01    0.0     0.00047396       -34.4178323030 -1.23E-04
    10 OT DIIS     0.80E-01    0.0     0.00033225       -34.4178463414 -1.40E-05
    11 OT DIIS     0.80E-01    0.0     0.00017255       -34.4178560211 -9.68E-06
    12 OT DIIS     0.80E-01    0.0     0.00009267       -34.4178586817 -2.66E-06
    13 OT DIIS     0.80E-01    0.0     0.00005433       -34.4178593187 -6.37E-07
    14 OT DIIS     0.80E-01    0.0     0.00003414       -34.4178595148 -1.96E-07
    15 OT DIIS     0.80E-01    0.0     0.00001299       -34.4178596125 -9.77E-08
    16 OT DIIS     0.80E-01    0.0     0.00000652       -34.4178596239 -1.14E-08
    17 OT DIIS     0.80E-01    0.0     0.00000445       -34.4178596262 -2.35E-09
    18 OT DIIS     0.80E-01    0.0     0.00000275       -34.4178596275 -1.30E-09
    19 OT DIIS     0.80E-01    0.0     0.00000144       -34.4178596281 -6.28E-10
    20 OT DIIS     0.80E-01    0.0     0.00000086       -34.4178596283 -1.72E-10

  *** SCF run converged in    20 steps ***


  Core-core repulsion energy [eV]:                           2304.24852743458132
  Core Hamiltonian energy [eV]:                             -1429.89696750836106
  Two-electron integral energy [eV]:                        -3586.11470657553491
  Electronic energy [eV]:                                   -3222.95432079612874
  QM/MM Electrostatic energy:                                  -0.65604147879196

  Total energy [eV]:                                         -936.55758986677790

  Atomic reference energy [eV]:                               917.68881409010157
  Heat of formation [kcal/mol]:                              -435.12434080224290

  outer SCF iter =    1 RMS gradient =   0.86E-06 energy =        -34.4178596283
  outer SCF loop converged in   1 iterations or   20 steps


 ENERGY| Total FORCE_EVAL ( QMMM ) energy (a.u.):            -55.423920742852346


 --------  Informations at step =     5 ------------
  Optimization Method        =                LBFGS
  Total Energy               =       -55.4239207429
  Real energy change         =        -0.3757083383
  Decrease in energy         =                  YES
  Used time                  =                0.446

  Convergence check :
  Max. step size             =         0.0950121005
  Conv. limit for step size  =         0.0030000000
  Convergence in step size   =                   NO
  RMS step size              =         0.0134674610
  Conv. limit for RMS step   =         0.0015000000
  Convergence in RMS step    =                   NO
  Max. gradient              =         0.1699757944
  Conv. limit for gradients  =         0.0004500000
  Conv. for gradients        =                   NO
  RMS gradient               =         0.0046448377
  Conv. limit for RMS grad.  =         0.0003000000
  Conv. for gradients        =                   NO
 ---------------------------------------------------

 --------------------------
 OPTIMIZATION STEP:      6
 --------------------------

  Translating the system in order to center the QM fragment in the QM box.

 Number of electrons:                                                         30
 Number of occupied orbitals:                                                 15
 Number of molecular orbitals:                                                15

 Number of orbital functions:                                                 27
 Number of independent orbital functions:                                     27

 Extrapolation method: ASPC


 SCF WAVEFUNCTION OPTIMIZATION

  ----------------------------------- OT ---------------------------------------
  Minimizer      : DIIS                : direct inversion
                                         in the iterative subspace
                                         using   7 DIIS vectors
                                         safer DIIS on
  Preconditioner : FULL_SINGLE_INVERSE : inversion of 
                                         H + eS - 2*(Sc)(c^T*H*c+const)(Sc)^T
  Precond_solver : DEFAULT
  stepsize       :    0.08000000                  energy_gap     :    0.08000000
  eps_taylor     :   0.10000E-15                  max_taylor     :             4
  ----------------------------------- OT ---------------------------------------

  Step     Update method      Time    Convergence         Total energy    Change
  ------------------------------------------------------------------------------
     1 OT DIIS     0.80E-01    0.0     0.06830539       -33.9904485252 -3.40E+01
     2 OT DIIS     0.80E-01    0.0     0.04343924       -34.1119849012 -1.22E-01
     3 OT DIIS     0.80E-01    0.0     0.02054748       -34.1982340481 -8.62E-02
     4 OT DIIS     0.80E-01    0.0     0.00821691       -34.2243081609 -2.61E-02
     5 OT DIIS     0.80E-01    0.0     0.00442097       -34.2287604336 -4.45E-03
     6 OT DIIS     0.80E-01    0.0     0.00245545       -34.2301910717 -1.43E-03
     7 OT DIIS     0.80E-01    0.0     0.00172456       -34.2306432523 -4.52E-04
     8 OT DIIS     0.80E-01    0.0     0.00096907       -34.2309756776 -3.32E-04
     9 OT DIIS     0.80E-01    0.0     0.00063489       -34.2310765589 -1.01E-04
    10 OT DIIS     0.80E-01    0.0     0.00044633       -34.2311137424 -3.72E-05
    11 OT DIIS     0.80E-01    0.0     0.00021941       -34.2311408108 -2.71E-05
    12 OT DIIS     0.80E-01    0.0     0.00016170       -34.2311443496 -3.54E-06
    13 OT DIIS     0.80E-01    0.0     0.00008277       -34.2311473699 -3.02E-06
    14 OT DIIS     0.80E-01    0.0     0.00005275       -34.2311480408 -6.71E-07
    15 OT DIIS     0.80E-01    0.0     0.00003598       -34.2311482852 -2.44E-07
    16 OT DIIS     0.80E-01    0.0     0.00002438       -34.2311483945 -1.09E-07
    17 OT DIIS     0.80E-01    0.0     0.00001293       -34.2311484582 -6.37E-08
    18 OT DIIS     0.80E-01    0.0     0.00000786       -34.2311484751 -1.69E-08
    19 OT DIIS     0.80E-01    0.0     0.00000576       -34.2311484793 -4.27E-09
    20 OT DIIS     0.80E-01    0.0     0.00000381       -34.2311484821 -2.78E-09
    21 OT DIIS     0.80E-01    0.0     0.00000275       -34.2311484832 -1.12E-09
    22 OT DIIS     0.80E-01    0.0     0.00000156       -34.2311484842 -9.12E-10
    23 OT DIIS     0.80E-01    0.0     0.00000102       -34.2311484844 -2.65E-10
    24 OT DIIS     0.80E-01    0.0     0.00000074       -34.2311484845 -9.65E-11

  *** SCF run converged in    24 steps ***


  Core-core repulsion energy [eV]:                           2312.89991712876645
  Core Hamiltonian energy [eV]:                             -1428.48503786348897
  Two-electron integral energy [eV]:                        -3602.54912905919173
  Electronic energy [eV]:                                   -3229.75960239308461
  QM/MM Electrostatic energy:                                  -0.53717356220358

  Total energy [eV]:                                         -931.47692126303389

  Atomic reference energy [eV]:                               917.68881409010157
  Heat of formation [kcal/mol]:                              -317.96133016477341

  outer SCF iter =    1 RMS gradient =   0.74E-06 energy =        -34.2311484845
  outer SCF loop converged in   1 iterations or   24 steps


 ENERGY| Total FORCE_EVAL ( QMMM ) energy (a.u.):            -55.978622587480992


 --------  Informations at step =     6 ------------
  Optimization Method        =                LBFGS
  Total Energy               =       -55.9786225875
  Real energy change         =        -0.5547018446
  Decrease in energy         =                  YES
  Used time                  =                0.486

  Convergence check :
  Max. step size             =         0.5104310313
  Conv. limit for step size  =         0.0030000000
  Convergence in step size   =                   NO
  RMS step size              =         0.0747230064
  Conv. limit for RMS step   =         0.0015000000
  Convergence in RMS step    =                   NO
  Max. gradient              =         0.3060497103
  Conv. limit for gradients  =         0.0004500000
  Conv. for gradients        =                   NO
  RMS gradient               =         0.0086609001
  Conv. limit for RMS grad.  =         0.0003000000
  Conv. for gradients        =                   NO
 ---------------------------------------------------

 --------------------------
 OPTIMIZATION STEP:      7
 --------------------------

  Translating the system in order to center the QM fragment in the QM box.

 Number of electrons:                                                         30
 Number of occupied orbitals:                                                 15
 Number of molecular orbitals:                                                15

 Number of orbital functions:                                                 27
 Number of independent orbital functions:                                     27

 Extrapolation method: ASPC


 SCF WAVEFUNCTION OPTIMIZATION

  ----------------------------------- OT ---------------------------------------
  Minimizer      : DIIS                : direct inversion
                                         in the iterative subspace
                                         using   7 DIIS vectors
                                         safer DIIS on
  Preconditioner : FULL_SINGLE_INVERSE : inversion of 
                                         H + eS - 2*(Sc)(c^T*H*c+const)(Sc)^T
  Precond_solver : DEFAULT
  stepsize       :    0.08000000                  energy_gap     :    0.08000000
  eps_taylor     :   0.10000E-15                  max_taylor     :             4
  ----------------------------------- OT ---------------------------------------

  Step     Update method      Time    Convergence         Total energy    Change
  ------------------------------------------------------------------------------
     1 OT DIIS     0.80E-01    0.0     0.11516103       -33.6255899624 -3.36E+01
     2 OT DIIS     0.80E-01    0.0     0.06997992       -33.9612352523 -3.36E-01
     3 OT DIIS     0.80E-01    0.0     0.03656968       -34.1588497132 -1.98E-01
     4 OT DIIS     0.80E-01    0.0     0.01721343       -34.2330893717 -7.42E-02
     5 OT DIIS     0.80E-01    0.0     0.01043147       -34.2523119341 -1.92E-02
     6 OT DIIS     0.80E-01    0.0     0.00536057       -34.2617255504 -9.41E-03
     7 OT DIIS     0.80E-01    0.0     0.00326029       -34.2639292440 -2.20E-03
     8 OT DIIS     0.80E-01    0.0     0.00192234       -34.2647449322 -8.16E-04
     9 OT DIIS     0.80E-01    0.0     0.00112041       -34.2650644877 -3.20E-04
    10 OT DIIS     0.80E-01    0.0     0.00065151       -34.2651621823 -9.77E-05
    11 OT DIIS     0.80E-01    0.0     0.00038224       -34.2652021530 -4.00E-05
    12 OT DIIS     0.80E-01    0.0     0.00022920       -34.2652141992 -1.20E-05
    13 OT DIIS     0.80E-01    0.0     0.00015361       -34.2652182552 -4.06E-06
    14 OT DIIS     0.80E-01    0.0     0.00006837       -34.2652207483 -2.49E-06
    15 OT DIIS     0.80E-01    0.0     0.00004611       -34.2652210777 -3.29E-07
    16 OT DIIS     0.80E-01    0.0     0.00002791       -34.2652212520 -1.74E-07
    17 OT DIIS     0.80E-01    0.0     0.00001676       -34.2652213121 -6.01E-08
    18 OT DIIS     0.80E-01    0.0     0.00000929       -34.2652213350 -2.29E-08
    19 OT DIIS     0.80E-01    0.0     0.00000712       -34.2652213395 -4.51E-09
    20 OT DIIS     0.80E-01    0.0     0.00000440       -34.2652213439 -4.44E-09
    21 OT DIIS     0.80E-01    0.0     0.00000279       -34.2652213458 -1.85E-09
    22 OT DIIS     0.80E-01    0.0     0.00000180       -34.2652213464 -6.63E-10
    23 OT DIIS     0.80E-01    0.0     0.00000117       -34.2652213467 -2.65E-10
    24 OT DIIS     0.80E-01    0.0     0.00000081       -34.2652213468 -9.58E-11

  *** SCF run converged in    24 steps ***


  Core-core repulsion energy [eV]:                           2305.23671116966943
  Core Hamiltonian energy [eV]:                             -1429.09051178090431
  Two-electron integral energy [eV]:                        -3587.31767609969893
  Electronic energy [eV]:                                   -3222.74934983075400
  QM/MM Electrostatic energy:                                  -0.54725082761480

  Total energy [eV]:                                         -932.40409099712906

  Atomic reference energy [eV]:                               917.68881409010157
  Heat of formation [kcal/mol]:                              -339.34237386017946

  outer SCF iter =    1 RMS gradient =   0.81E-06 energy =        -34.2652213468
  outer SCF loop converged in   1 iterations or   24 steps


 ENERGY| Total FORCE_EVAL ( QMMM ) energy (a.u.):            -56.041250785730632


 --------  Informations at step =     7 ------------
  Optimization Method        =                LBFGS
  Total Energy               =       -56.0412507857
  Real energy change         =        -0.0626281982
  Decrease in energy         =                  YES
  Used time                  =                0.450

  Convergence check :
  Max. step size             =         0.3451655749
  Conv. limit for step size  =         0.0030000000
  Convergence in step size   =                   NO
  RMS step size              =         0.0164403931
  Conv. limit for RMS step   =         0.0015000000
  Convergence in RMS step    =                   NO
  Max. gradient              =         0.3632843698
  Conv. limit for gradients  =         0.0004500000
  Conv. for gradients        =                   NO
  RMS gradient               =         0.0104958108
  Conv. limit for RMS grad.  =         0.0003000000
  Conv. for gradients        =                   NO
 ---------------------------------------------------

 --------------------------
 OPTIMIZATION STEP:      8
 --------------------------

  Translating the system in order to center the QM fragment in the QM box.

 Number of electrons:                                                         30
 Number of occupied orbitals:                                                 15
 Number of molecular orbitals:                                                15

 Number of orbital functions:                                                 27
 Number of independent orbital functions:                                     27

 Extrapolation method: ASPC


 SCF WAVEFUNCTION OPTIMIZATION

  ----------------------------------- OT ---------------------------------------
  Minimizer      : DIIS                : direct inversion
                                         in the iterative subspace
                                         using   7 DIIS vectors
                                         safer DIIS on
  Preconditioner : FULL_SINGLE_INVERSE : inversion of 
                                         H + eS - 2*(Sc)(c^T*H*c+const)(Sc)^T
  Precond_solver : DEFAULT
  stepsize       :    0.08000000                  energy_gap     :    0.08000000
  eps_taylor     :   0.10000E-15                  max_taylor     :             4
  ----------------------------------- OT ---------------------------------------

  Step     Update method      Time    Convergence         Total energy    Change
  ------------------------------------------------------------------------------
     1 OT DIIS     0.80E-01    0.0     0.09943691       -33.7591241509 -3.38E+01
     2 OT DIIS     0.80E-01    0.0     0.06794974       -34.0262210630 -2.67E-01
     3 OT DIIS     0.80E-01    0.0     0.03103311       -34.2591311036 -2.33E-01
     4 OT DIIS     0.80E-01    0.0     0.01466436       -34.3179756361 -5.88E-02
     5 OT DIIS     0.80E-01    0.0     0.00868807       -34.3331038077 -1.51E-02
     6 OT DIIS     0.80E-01    0.0     0.00542108       -34.3368426612 -3.74E-03
     7 OT DIIS     0.80E-01    0.0     0.00285478       -34.3400146357 -3.17E-03
     8 OT DIIS     0.80E-01    0.0     0.00190478       -34.3405527283 -5.38E-04
     9 OT DIIS     0.80E-01    0.0     0.00106716       -34.3409233540 -3.71E-04
    10 OT DIIS     0.80E-01    0.0     0.00054961       -34.3410371516 -1.14E-04
    11 OT DIIS     0.80E-01    0.0     0.00035777       -34.3410617616 -2.46E-05
    12 OT DIIS     0.80E-01    0.0     0.00018693       -34.3410737574 -1.20E-05
    13 OT DIIS     0.80E-01    0.0     0.00010709       -34.3410769483 -3.19E-06
    14 OT DIIS     0.80E-01    0.0     0.00007355       -34.3410777041 -7.56E-07
    15 OT DIIS     0.80E-01    0.0     0.00002835       -34.3410782416 -5.38E-07
    16 OT DIIS     0.80E-01    0.0     0.00002010       -34.3410782827 -4.10E-08
    17 OT DIIS     0.80E-01    0.0     0.00001220       -34.3410783104 -2.77E-08
    18 OT DIIS     0.80E-01    0.0     0.00000591       -34.3410783251 -1.47E-08
    19 OT DIIS     0.80E-01    0.0     0.00000419       -34.3410783274 -2.31E-09
    20 OT DIIS     0.80E-01    0.0     0.00000211       -34.3410783292 -1.80E-09
    21 OT DIIS     0.80E-01    0.0     0.00000122       -34.3410783296 -3.87E-10
    22 OT DIIS     0.80E-01    0.0     0.00000080       -34.3410783297 -1.08E-10

  *** SCF run converged in    22 steps ***


  Core-core repulsion energy [eV]:                           2272.77094783723533
  Core Hamiltonian energy [eV]:                             -1426.51395962525407
  Two-electron integral energy [eV]:                        -3530.84100183881219
  Electronic energy [eV]:                                   -3191.93446054465994
  QM/MM Electrostatic energy:                                  -0.56243930304462

  Total energy [eV]:                                         -934.46826447858598

  Atomic reference energy [eV]:                               917.68881409010157
  Heat of formation [kcal/mol]:                              -386.94334893406983

  outer SCF iter =    1 RMS gradient =   0.80E-06 energy =        -34.3410783297
  outer SCF loop converged in   1 iterations or   22 steps


 ENERGY| Total FORCE_EVAL ( QMMM ) energy (a.u.):            -56.503543212182244


 --------  Informations at step =     8 ------------
  Optimization Method        =                LBFGS
  Total Energy               =       -56.5035432122
  Real energy change         =        -0.4622924265
  Decrease in energy         =                  YES
  Used time                  =                0.445

  Convergence check :
  Max. step size             =         0.2270642213
  Conv. limit for step size  =         0.0030000000
  Convergence in step size   =                   NO
  RMS step size              =         0.0080193113
  Conv. limit for RMS step   =         0.0015000000
  Convergence in RMS step    =                   NO
  Max. gradient              =         0.0867593262
  Conv. limit for gradients  =         0.0004500000
  Conv. for gradients        =                   NO
  RMS gradient               =         0.0026653199
  Conv. limit for RMS grad.  =         0.0003000000
  Conv. for gradients        =                   NO
 ---------------------------------------------------

 --------------------------
 OPTIMIZATION STEP:      9
 --------------------------

  Translating the system in order to center the QM fragment in the QM box.

 Number of electrons:                                                         30
 Number of occupied orbitals:                                                 15
 Number of molecular orbitals:                                                15

 Number of orbital functions:                                                 27
 Number of independent orbital functions:                                     27

 Extrapolation method: ASPC


 SCF WAVEFUNCTION OPTIMIZATION

  ----------------------------------- OT ---------------------------------------
  Minimizer      : DIIS                : direct inversion
                                         in the iterative subspace
                                         using   7 DIIS vectors
                                         safer DIIS on
  Preconditioner : FULL_SINGLE_INVERSE : inversion of 
                                         H + eS - 2*(Sc)(c^T*H*c+const)(Sc)^T
  Precond_solver : DEFAULT
  stepsize       :    0.08000000                  energy_gap     :    0.08000000
  eps_taylor     :   0.10000E-15                  max_taylor     :             4
  ----------------------------------- OT ---------------------------------------

  Step     Update method      Time    Convergence         Total energy    Change
  ------------------------------------------------------------------------------
     1 OT DIIS     0.80E-01    0.0     0.07708841       -33.9891316592 -3.40E+01
     2 OT DIIS     0.80E-01    0.0     0.05376577       -34.1516209508 -1.62E-01
     3 OT DIIS     0.80E-01    0.0     0.02171591       -34.3071207683 -1.55E-01
     4 OT DIIS     0.80E-01    0.0     0.01024873       -34.3367295610 -2.96E-02
     5 OT DIIS     0.80E-01    0.0     0.00538076       -34.3440933959 -7.36E-03
     6 OT DIIS     0.80E-01    0.0     0.00250170       -34.3455399424 -1.45E-03
     7 OT DIIS     0.80E-01    0.0     0.00122453       -34.3460370914 -4.97E-04
     8 OT DIIS     0.80E-01    0.0     0.00078826       -34.3460950781 -5.80E-05
     9 OT DIIS     0.80E-01    0.0     0.00037543       -34.3461507617 -5.57E-05
    10 OT DIIS     0.80E-01    0.0     0.00019366       -34.3461628918 -1.21E-05
    11 OT DIIS     0.80E-01    0.0     0.00013265       -34.3461654913 -2.60E-06
    12 OT DIIS     0.80E-01    0.0     0.00007856       -34.3461670481 -1.56E-06
    13 OT DIIS     0.80E-01    0.0     0.00005098       -34.3461675794 -5.31E-07
    14 OT DIIS     0.80E-01    0.0     0.00003807       -34.3461677724 -1.93E-07
    15 OT DIIS     0.80E-01    0.0     0.00001516       -34.3461679535 -1.81E-07
    16 OT DIIS     0.80E-01    0.0     0.00000713       -34.3461679762 -2.27E-08
    17 OT DIIS     0.80E-01    0.0     0.00000515       -34.3461679792 -3.02E-09
    18 OT DIIS     0.80E-01    0.0     0.00000283       -34.3461679816 -2.39E-09
    19 OT DIIS     0.80E-01    0.0     0.00000156       -34.3461679824 -7.72E-10
    20 OT DIIS     0.80E-01    0.0     0.00000106       -34.3461679826 -2.02E-10
    21 OT DIIS     0.80E-01    0.0     0.00000066       -34.3461679827 -9.69E-11

  *** SCF run converged in    21 steps ***


  Core-core repulsion energy [eV]:                           2287.58826411691189
  Core Hamiltonian energy [eV]:                             -1427.70000175507607
  Two-electron integral energy [eV]:                        -3558.81944364381525
  Electronic energy [eV]:                                   -3207.10972357698347
  QM/MM Electrostatic energy:                                  -0.55437465427598

  Total energy [eV]:                                         -934.60676097792111

  Atomic reference energy [eV]:                               917.68881409010157
  Heat of formation [kcal/mol]:                              -390.13715433458469

  outer SCF iter =    1 RMS gradient =   0.66E-06 energy =        -34.3461679827
  outer SCF loop converged in   1 iterations or   21 steps


 ENERGY| Total FORCE_EVAL ( QMMM ) energy (a.u.):            -56.558819896441292


 --------  Informations at step =     9 ------------
  Optimization Method        =                LBFGS
  Total Energy               =       -56.5588198964
  Real energy change         =        -0.0552766843
  Decrease in energy         =                  YES
  Used time                  =                0.433

  Convergence check :
  Max. step size             =         0.0498607451
  Conv. limit for step size  =         0.0030000000
  Convergence in step size   =                   NO
  RMS step size              =         0.0042140936
  Conv. limit for RMS step   =         0.0015000000
  Convergence in RMS step    =                   NO
  Max. gradient              =         0.0431475586
  Conv. limit for gradients  =         0.0004500000
  Conv. for gradients        =                   NO
  RMS gradient               =         0.0019452807
  Conv. limit for RMS grad.  =         0.0003000000
  Conv. for gradients        =                   NO
 ---------------------------------------------------

 --------------------------
 OPTIMIZATION STEP:     10
 --------------------------

  Translating the system in order to center the QM fragment in the QM box.

 Number of electrons:                                                         30
 Number of occupied orbitals:                                                 15
 Number of molecular orbitals:                                                15

 Number of orbital functions:                                                 27
 Number of independent orbital functions:                                     27

 Extrapolation method: ASPC


 SCF WAVEFUNCTION OPTIMIZATION

  ----------------------------------- OT ---------------------------------------
  Minimizer      : DIIS                : direct inversion
                                         in the iterative subspace
                                         using   7 DIIS vectors
                                         safer DIIS on
  Preconditioner : FULL_SINGLE_INVERSE : inversion of 
                                         H + eS - 2*(Sc)(c^T*H*c+const)(Sc)^T
  Precond_solver : DEFAULT
  stepsize       :    0.08000000                  energy_gap     :    0.08000000
  eps_taylor     :   0.10000E-15                  max_taylor     :             4
  ----------------------------------- OT ---------------------------------------

  Step     Update method      Time    Convergence         Total energy    Change
  ------------------------------------------------------------------------------
     1 OT DIIS     0.80E-01    0.0     0.06277232       -34.1376696539 -3.41E+01
     2 OT DIIS     0.80E-01    0.0     0.03972196       -34.2405479980 -1.03E-01
     3 OT DIIS     0.80E-01    0.0     0.01789625       -34.3138048946 -7.33E-02
     4 OT DIIS     0.80E-01    0.0     0.00728948       -34.3348657170 -2.11E-02
     5 OT DIIS     0.80E-01    0.0     0.00386149       -34.3385189417 -3.65E-03
     6 OT DIIS     0.80E-01    0.0     0.00154739       -34.3396334288 -1.11E-03
     7 OT DIIS     0.80E-01    0.0     0.00094771       -34.3397675296 -1.34E-04
     8 OT DIIS     0.80E-01    0.0     0.00043578       -34.3398446535 -7.71E-05
     9 OT DIIS     0.80E-01    0.0     0.00026831       -34.3398562307 -1.16E-05
    10 OT DIIS     0.80E-01    0.0     0.00014768       -34.3398625314 -6.30E-06
    11 OT DIIS     0.80E-01    0.0     0.00008151       -34.3398647192 -2.19E-06
    12 OT DIIS     0.80E-01    0.0     0.00005788       -34.3398652122 -4.93E-07
    13 OT DIIS     0.80E-01    0.0     0.00003448       -34.3398655287 -3.17E-07
    14 OT DIIS     0.80E-01    0.0     0.00001661       -34.3398656439 -1.15E-07
    15 OT DIIS     0.80E-01    0.0     0.00000628       -34.3398656705 -2.66E-08
    16 OT DIIS     0.80E-01    0.0     0.00000435       -34.3398656724 -1.90E-09
    17 OT DIIS     0.80E-01    0.0     0.00000242       -34.3398656738 -1.38E-09
    18 OT DIIS     0.80E-01    0.0     0.00000139       -34.3398656742 -4.72E-10
    19 OT DIIS     0.80E-01    0.0     0.00000064       -34.3398656744 -1.80E-10

  *** SCF run converged in    19 steps ***


  Core-core repulsion energy [eV]:                           2310.02711283542567
  Core Hamiltonian energy [eV]:                             -1429.75085586720843
  Two-electron integral energy [eV]:                        -3599.95506223731263
  Electronic energy [eV]:                                   -3229.72838698586474
  QM/MM Electrostatic energy:                                  -0.54146427747696

  Total energy [eV]:                                         -934.43526644947747

  Atomic reference energy [eV]:                               917.68881409010157
  Heat of formation [kcal/mol]:                              -386.18239624516525

  outer SCF iter =    1 RMS gradient =   0.64E-06 energy =        -34.3398656744
  outer SCF loop converged in   1 iterations or   19 steps


 ENERGY| Total FORCE_EVAL ( QMMM ) energy (a.u.):            -56.649302076646755


 --------  Informations at step =    10 ------------
  Optimization Method        =                LBFGS
  Total Energy               =       -56.6493020766
  Real energy change         =        -0.0904821802
  Decrease in energy         =                  YES
  Used time                  =                0.450

  Convergence check :
  Max. step size             =         0.0947992942
  Conv. limit for step size  =         0.0030000000
  Convergence in step size   =                   NO
  RMS step size              =         0.0078261288
  Conv. limit for RMS step   =         0.0015000000
  Convergence in RMS step    =                   NO
  Max. gradient              =         0.0393337411
  Conv. limit for gradients  =         0.0004500000
  Conv. for gradients        =                   NO
  RMS gradient               =         0.0024688498
  Conv. limit for RMS grad.  =         0.0003000000
  Conv. for gradients        =                   NO
 ---------------------------------------------------

 --------------------------
 OPTIMIZATION STEP:     11
 --------------------------

  Translating the system in order to center the QM fragment in the QM box.

 Number of electrons:                                                         30
 Number of occupied orbitals:                                                 15
 Number of molecular orbitals:                                                15

 Number of orbital functions:                                                 27
 Number of independent orbital functions:                                     27

 Extrapolation method: ASPC


 SCF WAVEFUNCTION OPTIMIZATION

  ----------------------------------- OT ---------------------------------------
  Minimizer      : DIIS                : direct inversion
                                         in the iterative subspace
                                         using   7 DIIS vectors
                                         safer DIIS on
  Preconditioner : FULL_SINGLE_INVERSE : inversion of 
                                         H + eS - 2*(Sc)(c^T*H*c+const)(Sc)^T
  Precond_solver : DEFAULT
  stepsize       :    0.08000000                  energy_gap     :    0.08000000
  eps_taylor     :   0.10000E-15                  max_taylor     :             4
  ----------------------------------- OT ---------------------------------------

  Step     Update method      Time    Convergence         Total energy    Change
  ------------------------------------------------------------------------------
     1 OT DIIS     0.80E-01    0.0     0.01743296       -34.2790964191 -3.43E+01
     2 OT DIIS     0.80E-01    0.0     0.01238131       -34.2874588089 -8.36E-03
     3 OT DIIS     0.80E-01    0.0     0.00543610       -34.2963384399 -8.88E-03
     4 OT DIIS     0.80E-01    0.0     0.00208686       -34.2988688438 -2.53E-03
     5 OT DIIS     0.80E-01    0.0     0.00102072       -34.2992169484 -3.48E-04
     6 OT DIIS     0.80E-01    0.0     0.00061452       -34.2992781743 -6.12E-05
     7 OT DIIS     0.80E-01    0.0     0.00027822       -34.2993106213 -3.24E-05
     8 OT DIIS     0.80E-01    0.0     0.00014935       -34.2993164088 -5.79E-06
     9 OT DIIS     0.80E-01    0.0     0.00007612       -34.2993185072 -2.10E-06
    10 OT DIIS     0.80E-01    0.0     0.00004515       -34.2993189919 -4.85E-07
    11 OT DIIS     0.80E-01    0.0     0.00002944       -34.2993191412 -1.49E-07
    12 OT DIIS     0.80E-01    0.0     0.00001784       -34.2993192150 -7.38E-08
    13 OT DIIS     0.80E-01    0.0     0.00001037       -34.2993192458 -3.08E-08
    14 OT DIIS     0.80E-01    0.0     0.00000785       -34.2993192533 -7.50E-09
    15 OT DIIS     0.80E-01    0.0     0.00000388       -34.2993192611 -7.77E-09
    16 OT DIIS     0.80E-01    0.0     0.00000257       -34.2993192623 -1.20E-09
    17 OT DIIS     0.80E-01    0.0     0.00000192       -34.2993192627 -4.10E-10
    18 OT DIIS     0.80E-01    0.0     0.00000146       -34.2993192629 -2.34E-10
    19 OT DIIS     0.80E-01    0.0     0.00000098       -34.2993192631 -1.75E-10

  *** SCF run converged in    19 steps ***


  Core-core repulsion energy [eV]:                           2346.34614306206504
  Core Hamiltonian energy [eV]:                             -1432.76914154170686
  Two-electron integral energy [eV]:                        -3665.46389161476009
  Electronic energy [eV]:                                   -3265.50108734908690
  QM/MM Electrostatic energy:                                  -0.52099512008881

  Total energy [eV]:                                         -933.33194248715131

  Atomic reference energy [eV]:                               917.68881409010157
  Heat of formation [kcal/mol]:                              -360.73913922199949

  outer SCF iter =    1 RMS gradient =   0.98E-06 energy =        -34.2993192631
  outer SCF loop converged in   1 iterations or   19 steps


 ENERGY| Total FORCE_EVAL ( QMMM ) energy (a.u.):            -56.813999170460313


 --------  Informations at step =    11 ------------
  Optimization Method        =                LBFGS
  Total Energy               =       -56.8139991705
  Real energy change         =        -0.1646970938
  Decrease in energy         =                  YES
  Used time                  =                0.498

  Convergence check :
  Max. step size             =         0.1515139805
  Conv. limit for step size  =         0.0030000000
  Convergence in step size   =                   NO
  RMS step size              =         0.0170244780
  Conv. limit for RMS step   =         0.0015000000
  Convergence in RMS step    =                   NO
  Max. gradient              =         0.1457927012
  Conv. limit for gradients  =         0.0004500000
  Conv. for gradients        =                   NO
  RMS gradient               =         0.0037884110
  Conv. limit for RMS grad.  =         0.0003000000
  Conv. for gradients        =                   NO
 ---------------------------------------------------

 --------------------------
 OPTIMIZATION STEP:     12
 --------------------------

  Translating the system in order to center the QM fragment in the QM box.

 Number of electrons:                                                         30
 Number of occupied orbitals:                                                 15
 Number of molecular orbitals:                                                15

 Number of orbital functions:                                                 27
 Number of independent orbital functions:                                     27

 Extrapolation method: ASPC


 SCF WAVEFUNCTION OPTIMIZATION

  ----------------------------------- OT ---------------------------------------
  Minimizer      : DIIS                : direct inversion
                                         in the iterative subspace
                                         using   7 DIIS vectors
                                         safer DIIS on
  Preconditioner : FULL_SINGLE_INVERSE : inversion of 
                                         H + eS - 2*(Sc)(c^T*H*c+const)(Sc)^T
  Precond_solver : DEFAULT
  stepsize       :    0.08000000                  energy_gap     :    0.08000000
  eps_taylor     :   0.10000E-15                  max_taylor     :             4
  ----------------------------------- OT ---------------------------------------

  Step     Update method      Time    Convergence         Total energy    Change
  ------------------------------------------------------------------------------
     1 OT DIIS     0.80E-01    0.0     0.02688947       -34.1882276331 -3.42E+01
     2 OT DIIS     0.80E-01    0.0     0.01911578       -34.2080710955 -1.98E-02
     3 OT DIIS     0.80E-01    0.0     0.00926803       -34.2289154610 -2.08E-02
     4 OT DIIS     0.80E-01    0.0     0.00411797       -34.2358752468 -6.96E-03
     5 OT DIIS     0.80E-01    0.0     0.00244006       -34.2373966345 -1.52E-03
     6 OT DIIS     0.80E-01    0.0     0.00166122       -34.2377487481 -3.52E-04
     7 OT DIIS     0.80E-01    0.0     0.00085798       -34.2380581084 -3.09E-04
     8 OT DIIS     0.80E-01    0.0     0.00043216       -34.2381340370 -7.59E-05
     9 OT DIIS     0.80E-01    0.0     0.00023740       -34.2381496741 -1.56E-05
    10 OT DIIS     0.80E-01    0.0     0.00014484       -34.2381549275 -5.25E-06
    11 OT DIIS     0.80E-01    0.0     0.00006878       -34.2381569407 -2.01E-06
    12 OT DIIS     0.80E-01    0.0     0.00003876       -34.2381573591 -4.18E-07
    13 OT DIIS     0.80E-01    0.0     0.00002860       -34.2381574518 -9.26E-08
    14 OT DIIS     0.80E-01    0.0     0.00001562       -34.2381575349 -8.31E-08
    15 OT DIIS     0.80E-01    0.0     0.00000786       -34.2381575626 -2.78E-08
    16 OT DIIS     0.80E-01    0.0     0.00000609       -34.2381575665 -3.90E-09
    17 OT DIIS     0.80E-01    0.0     0.00000306       -34.2381575707 -4.14E-09
    18 OT DIIS     0.80E-01    0.0     0.00000236       -34.2381575712 -5.46E-10
    19 OT DIIS     0.80E-01    0.0     0.00000159       -34.2381575717 -4.89E-10
    20 OT DIIS     0.80E-01    0.0     0.00000088       -34.2381575720 -2.93E-10

  *** SCF run converged in    20 steps ***


  Core-core repulsion energy [eV]:                           2375.63115866327735
  Core Hamiltonian energy [eV]:                             -1433.85230037937617
  Two-electron integral energy [eV]:                        -3720.50032837427398
  Electronic energy [eV]:                                   -3294.10246456651294
  QM/MM Electrostatic energy:                                  -0.48495667839789

  Total energy [eV]:                                         -931.66764823292112

  Atomic reference energy [eV]:                               917.68881409010157
  Heat of formation [kcal/mol]:                              -322.35959892516422

  outer SCF iter =    1 RMS gradient =   0.88E-06 energy =        -34.2381575720
  outer SCF loop converged in   1 iterations or   20 steps


 ENERGY| Total FORCE_EVAL ( QMMM ) energy (a.u.):            -57.041991929398819


 --------  Informations at step =    12 ------------
  Optimization Method        =                LBFGS
  Total Energy               =       -57.0419919294
  Real energy change         =        -0.2279927589
  Decrease in energy         =                  YES
  Used time                  =                0.424

  Convergence check :
  Max. step size             =         0.1789423892
  Conv. limit for step size  =         0.0030000000
  Convergence in step size   =                   NO
  RMS step size              =         0.0296494115
  Conv. limit for RMS step   =         0.0015000000
  Convergence in RMS step    =                   NO
  Max. gradient              =         0.2267558414
  Conv. limit for gradients  =         0.0004500000
  Conv. for gradients        =                   NO
  RMS gradient               =         0.0054689876
[...]

 Extrapolation method: ASPC


 SCF WAVEFUNCTION OPTIMIZATION

  ----------------------------------- OT ---------------------------------------
  Minimizer      : DIIS                : direct inversion
                                         in the iterative subspace
                                         using   7 DIIS vectors
                                         safer DIIS on
  Preconditioner : FULL_SINGLE_INVERSE : inversion of 
                                         H + eS - 2*(Sc)(c^T*H*c+const)(Sc)^T
  Precond_solver : DEFAULT
  stepsize       :    0.08000000                  energy_gap     :    0.08000000
  eps_taylor     :   0.10000E-15                  max_taylor     :             4
  ----------------------------------- OT ---------------------------------------

  Step     Update method      Time    Convergence         Total energy    Change
  ------------------------------------------------------------------------------
     1 OT DIIS     0.80E-01    0.0     0.00000150       -34.4255207826 -3.44E+01
     2 OT DIIS     0.80E-01    0.0     0.00000121       -34.4255207826 -6.57E-11
     3 OT DIIS     0.80E-01    0.0     0.00000054       -34.4255207828 -1.17E-10

  *** SCF run converged in     3 steps ***


  Core-core repulsion energy [eV]:                           2336.48822168275728
  Core Hamiltonian energy [eV]:                             -1441.46476679727994
  Two-electron integral energy [eV]:                        -3629.21859490849738
  Electronic energy [eV]:                                   -3256.07406425152840
  QM/MM Electrostatic energy:                                  -0.63136141856299

  Total energy [eV]:                                         -936.76606048150859

  Atomic reference energy [eV]:                               917.68881409010157
  Heat of formation [kcal/mol]:                              -439.93178776567942

  outer SCF iter =    1 RMS gradient =   0.54E-06 energy =        -34.4255207828
  outer SCF loop converged in   1 iterations or    3 steps


 ENERGY| Total FORCE_EVAL ( QMMM ) energy (a.u.):            -62.424986433099861


  Translating the system in order to center the QM fragment in the QM box.

 Number of electrons:                                                         30
 Number of occupied orbitals:                                                 15
 Number of molecular orbitals:                                                15

 Number of orbital functions:                                                 27
 Number of independent orbital functions:                                     27

 Extrapolation method: ASPC


 SCF WAVEFUNCTION OPTIMIZATION

  ----------------------------------- OT ---------------------------------------
  Minimizer      : DIIS                : direct inversion
                                         in the iterative subspace
                                         using   7 DIIS vectors
                                         safer DIIS on
  Preconditioner : FULL_SINGLE_INVERSE : inversion of 
                                         H + eS - 2*(Sc)(c^T*H*c+const)(Sc)^T
  Precond_solver : DEFAULT
  stepsize       :    0.08000000                  energy_gap     :    0.08000000
  eps_taylor     :   0.10000E-15                  max_taylor     :             4
  ----------------------------------- OT ---------------------------------------

  Step     Update method      Time    Convergence         Total energy    Change
  ------------------------------------------------------------------------------
     1 OT DIIS     0.80E-01    0.0     0.00000141       -34.4255207826 -3.44E+01
     2 OT DIIS     0.80E-01    0.0     0.00000111       -34.4255207827 -5.76E-11
     3 OT DIIS     0.80E-01    0.0     0.00000041       -34.4255207828 -9.65E-11

  *** SCF run converged in     3 steps ***


  Core-core repulsion energy [eV]:                           2336.48822168275728
  Core Hamiltonian energy [eV]:                             -1441.46488843728321
  Two-electron integral energy [eV]:                        -3629.21835630570331
  Electronic energy [eV]:                                   -3256.07406659013486
  QM/MM Electrostatic energy:                                  -0.63136133263482

  Total energy [eV]:                                         -936.76606048189046

  Atomic reference energy [eV]:                               917.68881409010157
  Heat of formation [kcal/mol]:                              -439.93178777448537

  outer SCF iter =    1 RMS gradient =   0.41E-06 energy =        -34.4255207828
  outer SCF loop converged in   1 iterations or    3 steps


 ENERGY| Total FORCE_EVAL ( QMMM ) energy (a.u.):            -62.424986433103435


 --------  Informations at step =   683 ------------
  Optimization Method        =                LBFGS
  Total Energy               =       -62.4249864331
  Real energy change         =         0.0000000000
  Decrease in energy         =                   NO
  Used time                  =                4.107

  Convergence check :
  Max. step size             =         0.0000000000
  Conv. limit for step size  =         0.0030000000
  Convergence in step size   =                  YES
  RMS step size              =         0.0000000000
  Conv. limit for RMS step   =         0.0015000000
  Convergence in RMS step    =                  YES
  Max. gradient              =         0.0049465292
  Conv. limit for gradients  =         0.0004500000
  Conv. for gradients        =                   NO
  RMS gradient               =         0.0000942200
  Conv. limit for RMS grad.  =         0.0003000000
  Conv. in RMS gradients     =                  YES
 ---------------------------------------------------

 --------------------------
 OPTIMIZATION STEP:    684
 --------------------------
 
 ***********************************************
 * Specific L-BFGS convergence criteria         
 * WANTED_PROJ_GRADIENT and WANTED_REL_F_ERROR  
 * satisfied .... run CONVERGED!                
 ***********************************************
 

                    Reevaluating energy at the minimum

  Translating the system in order to center the QM fragment in the QM box.

 Number of electrons:                                                         30
 Number of occupied orbitals:                                                 15
 Number of molecular orbitals:                                                15

 Number of orbital functions:                                                 27
 Number of independent orbital functions:                                     27

 Extrapolation method: ASPC


 SCF WAVEFUNCTION OPTIMIZATION

  ----------------------------------- OT ---------------------------------------
  Minimizer      : DIIS                : direct inversion
                                         in the iterative subspace
                                         using   7 DIIS vectors
                                         safer DIIS on
  Preconditioner : FULL_SINGLE_INVERSE : inversion of 
                                         H + eS - 2*(Sc)(c^T*H*c+const)(Sc)^T
  Precond_solver : DEFAULT
  stepsize       :    0.08000000                  energy_gap     :    0.08000000
  eps_taylor     :   0.10000E-15                  max_taylor     :             4
  ----------------------------------- OT ---------------------------------------

  Step     Update method      Time    Convergence         Total energy    Change
  ------------------------------------------------------------------------------
     1 OT DIIS     0.80E-01    0.0     0.00000113       -34.4255207827 -3.44E+01
     2 OT DIIS     0.80E-01    0.0     0.00000087       -34.4255207827 -3.64E-11

  *** SCF run converged in     2 steps ***


  Core-core repulsion energy [eV]:                           2336.48822168275728
  Core Hamiltonian energy [eV]:                             -1441.46461758881719
  Two-electron integral energy [eV]:                        -3629.21893206931736
  Electronic energy [eV]:                                   -3256.07408362347587
  QM/MM Electrostatic energy:                                  -0.63136070662896

  Total energy [eV]:                                         -936.76606048074564

  Atomic reference energy [eV]:                               917.68881409010157
  Heat of formation [kcal/mol]:                              -439.93178774808530

  outer SCF iter =    1 RMS gradient =   0.87E-06 energy =        -34.4255207827
  outer SCF loop converged in   1 iterations or    2 steps


 ENERGY| Total FORCE_EVAL ( QMMM ) energy (a.u.):            -62.424986433046271


 -------------------------------------------------------------------------------
 -                                                                             -
 -                                DBCSR STATISTICS                             -
 -                                                                             -
 -------------------------------------------------------------------------------
 COUNTER                                    TOTAL       BLAS       SMM       ACC
 flops     1 x    15 x    15              2623950     100.0%      0.0%      0.0%
 flops     4 x    15 x    15              7497000     100.0%      0.0%      0.0%
 flops     1 x     1 x    15             11747400     100.0%      0.0%      0.0%
 flops     1 x    15 x     1             20557950     100.0%      0.0%      0.0%
 flops     4 x     1 x    15             28529400     100.0%      0.0%      0.0%
 flops     1 x     4 x    15             30207600     100.0%      0.0%      0.0%
 flops     4 x    15 x     1             58737000     100.0%      0.0%      0.0%
 flops     1 x    15 x     4             58737000     100.0%      0.0%      0.0%
 flops     4 x     4 x    15            100692000     100.0%      0.0%      0.0%
 flops     4 x    15 x     4            167820000     100.0%      0.0%      0.0%
 flops    27 x    15 x    27            287656110     100.0%      0.0%      0.0%
 flops    15 x    15 x    27            598752000     100.0%      0.0%      0.0%
 flops    15 x    15 x    15            715878000     100.0%      0.0%      0.0%
 flops    27 x    15 x    15            738319050     100.0%      0.0%      0.0%
 flops inhomo. stacks                           0       0.0%      0.0%      0.0%
 flops total                         2.827754E+09     100.0%      0.0%      0.0%
 flops max/rank                      2.827754E+09     100.0%      0.0%      0.0%
 matmuls inhomo. stacks                         0       0.0%      0.0%      0.0%
 matmuls total                            3343922     100.0%      0.0%      0.0%
 number of processed stacks                342802     100.0%      0.0%      0.0%
 average stack size                                     9.8       0.0       0.0
 marketing flops                     2.966787E+09
 -------------------------------------------------------------------------------
 # multiplications                         258892
 max memory usage/rank               0.000000E+00
 # max total images/rank                        1
 # max 3D layers                                1
 # MPI messages exchanged                       0
 MPI messages size (bytes):
  total size                         0.000000E+00
  min size                           0.000000E+00
  max size                           0.000000E+00
  average size                       0.000000E+00
 MPI breakdown and total messages size (bytes):
             size <=      128                   0                        0
       128 < size <=     8192                   0                        0
      8192 < size <=    32768                   0                        0
     32768 < size <=   131072                   0                        0
    131072 < size <=  4194304                   0                        0
   4194304 < size <= 16777216                   0                        0
  16777216 < size                               0                        0
 -------------------------------------------------------------------------------

 MEMORY| Estimated peak process memory [MiB]                                   0

 -------------------------------------------------------------------------------
 -                                                                             -
 -                           R E F E R E N C E S                               -
 -                                                                             -
 -------------------------------------------------------------------------------
 
 CP2K version 5.1, the CP2K developers group (2017).
 CP2K is freely available from https://www.cp2k.org/ .

 Schuett, Ole; Messmer, Peter; Hutter, Juerg; VandeVondele, Joost. 
 Electronic Structure Calculations on Graphics Processing Units, John Wiley & Sons, Ltd, 173-190 (2016). 
 GPU-Accelerated Sparse Matrix-Matrix Multiplication for Linear Scaling Density Functional Theory.
 http://dx.doi.org/10.1002/9781118670712.ch8


 Borstnik, U; VandeVondele, J; Weber, V; Hutter, J. 
 PARALLEL COMPUTING, 40 (5-6), 47-58 (2014). 
 Sparse matrix multiplication: The distributed block-compressed sparse
 row library.
 http://dx.doi.org/10.1016/j.parco.2014.03.012


 Hutter, J; Iannuzzi, M; Schiffmann, F; VandeVondele, J. 
 WILEY INTERDISCIPLINARY REVIEWS-COMPUTATIONAL MOLECULAR SCIENCE, 4 (1), 15-25 (2014). 
 CP2K: atomistic simulations of condensed matter systems.
 http://dx.doi.org/10.1002/wcms.1159


 Laino, T; Mohamed, F; Laio, A; Parrinello, M. 
 JOURNAL OF CHEMICAL THEORY AND COMPUTATION, 1 (6), 1176-1184 (2005). 
 An efficient real space multigrid QM/MM electrostatic coupling.
 http://dx.doi.org/10.1021/ct050123f


 Frigo, M; Johnson, SG. 
 PROCEEDINGS OF THE IEEE, 93 (2), 216-231 (2005). 
 The design and implementation of FFTW3.
 http://dx.doi.org/10.1109/JPROC.2004.840301


 Kolafa, J. 
 JOURNAL OF COMPUTATIONAL CHEMISTRY, 25 (3), 335-342 (2004). 
 Time-reversible always stable predictor-corrector method for molecular dynamics of polarizable molecules.
 http://dx.doi.org/10.1002/jcc.10385


 VandeVondele, J; Hutter, J. 
 JOURNAL OF CHEMICAL PHYSICS, 118 (10), 4365-4369 (2003). 
 An efficient orbital transformation method for electronic structure
 calculations.
 http://dx.doi.org/10.1063/1.1543154


 ESSMANN, U; PERERA, L; BERKOWITZ, ML; DARDEN, T; LEE, H; PEDERSEN, LG. 
 JOURNAL OF CHEMICAL PHYSICS, 103 (19), 8577-8593 (1995). 
 A SMOOTH PARTICLE MESH EWALD METHOD.
 http://dx.doi.org/10.1063/1.470117


 BYRD, RH; LU, PH; NOCEDAL, J; ZHU, CY. 
 SIAM JOURNAL ON SCIENTIFIC COMPUTING, 16 (5), 1190-1208 (1995). 
 A LIMITED MEMORY ALGORITHM FOR BOUND CONSTRAINED OPTIMIZATION.
 http://dx.doi.org/10.1137/0916069


 STEWART, JJP. 
 JOURNAL OF COMPUTATIONAL CHEMISTRY, 10 (2), 209-220 (1989). 
 OPTIMIZATION OF PARAMETERS FOR SEMIEMPIRICAL METHODS .1. METHOD.
 http://dx.doi.org/10.1002/jcc.540100208


 -------------------------------------------------------------------------------
 -                                                                             -
 -                                T I M I N G                                  -
 -                                                                             -
 -------------------------------------------------------------------------------
 SUBROUTINE                       CALLS  ASD         SELF TIME        TOTAL TIME
                                MAXIMUM       AVERAGE  MAXIMUM  AVERAGE  MAXIMUM
 CP2K                                 1  1.0    0.008    0.008  323.281  323.281
 cp_geo_opt                           1  2.0    0.000    0.000  322.873  322.873
 geoopt_lbfgs                         1  3.0    0.036    0.036  322.873  322.873
 cp_opt_gopt_step                   684  4.0    0.417    0.417  322.560  322.560
 cp_eval_at                         832  5.0    0.193    0.193  321.298  321.298
 fist_calc_energy_force             832  6.0    0.095    0.095  173.394  173.394
 qs_forces                          831  6.0    0.040    0.040  100.060  100.060
 qs_energies                        832  7.0    0.019    0.019   97.910   97.910
 scf_env_do_scf                     832  8.0    0.029    0.029   96.383   96.383
 scf_env_do_scf_inner_loop        12320  9.0    0.786    0.786   91.669   91.669
 force_nonbond                      832  7.0   84.019   84.019   84.019   84.019
 qs_scf_new_mos                   12320 10.0    0.036    0.036   82.252   82.252
 qs_scf_loop_do_ot                12320 11.0    0.032    0.032   82.216   82.216
 spme_evaluate                      832  7.0   11.470   11.470   78.468   78.468
 ot_scf_mini                      12320 12.0    0.227    0.227   77.693   77.693
 dbcsr_multiply_generic          258892 15.2    5.746    5.746   77.262   77.262
 pw_transfer                       7488  8.6    0.012    0.012   59.466   59.466
 fft_wrap_pw1pw2                   3328  9.0    0.034    0.034   58.733   58.733
 fft_wrap_pw1pw2_10                3328 10.0    3.842    3.842   58.700   58.700
 ot_mini                          12320 13.0    0.033    0.033   57.058   57.058
 qs_ot_get_derivative             12320 14.0    0.045    0.045   49.856   49.856
 fft3d_s                           3330 11.0   48.601   48.601   48.604   48.604
 make_m2s                        517784 16.2    4.153    4.153   35.781   35.781
 qs_ot_get_derivative_taylor      11457 15.0    0.205    0.205   35.322   35.322
 qmmm_forces                        832  6.0    0.039    0.039   29.453   29.453
 deriv_se_qmmm_matrix               832  7.0    0.026    0.026   29.413   29.413
 deriv_se_qmmm_matrix_low          9972  8.0   29.386   29.386   29.386   29.386
 make_images                     517784 17.2    5.140    5.140   19.390   19.390
 qmmm_el_coupling                   832  6.0    0.005    0.005   17.776   17.776
 build_se_qmmm_matrix               832  7.0    0.030    0.030   17.742   17.742
 build_se_qmmm_matrix_low          9984  8.0   17.093   17.093   17.093   17.093
 multiply_cannon                 258892 16.2    3.603    3.603   16.326   16.326
 qs_ot_get_p                      13153 12.9    0.030    0.030   13.181   13.181
 list_control                       832  7.0    0.063    0.063    9.829    9.829
 build_fist_neighbor_lists           40  8.0    0.001    0.001    9.766    9.766
 dbcsr_make_images_dense         486482 17.3    1.698    1.698    9.721    9.721
 dbcsr_create_new               3089741 17.4    4.910    4.910    9.573    9.573
 rebuild_ks_matrix                13151 10.8    0.016    0.016    9.293    9.293
 build_se_fock_matrix             13151 11.8    0.130    0.130    9.278    9.278
 qs_ks_update_qs_env              13153 10.0    0.033    0.033    8.293    8.293
 build_neighbor_lists                40  9.0    8.009    8.009    8.181    8.181
 dbcsr_make_dense_low            714905 18.1    2.653    2.653    7.946    7.946
 qs_ot_get_orbitals               12320 13.0    0.025    0.025    7.319    7.319
 dbcsr_finalize                  755793 16.3    1.401    1.401    7.223    7.223
 ot_diis_step                     12320 14.0    0.208    0.208    7.148    7.148
 qs_ot_p2m_taylor                 12241 13.9    0.089    0.089    6.499    6.499
 -------------------------------------------------------------------------------

 The number of warnings for this run is : 2
 
 -------------------------------------------------------------------------------
  **** **** ******  **  PROGRAM ENDED AT                 2019-08-15 10:42:42.145
 ***** ** ***  *** **   PROGRAM RAN ON                              S4A-Q177HV29
 **    ****   ******    PROGRAM RAN BY                                  sllabres
 ***** **    ** ** **   PROGRAM PROCESS ID                                 52217
  **** **  *******  **  PROGRAM STOPPED IN /Users/sllabres/Work/github_repos/CP2
                                           K_tutorials_for_biological_simulation
                                           s/AMBER_NMA/section3/CP2K
