#     Step Nr.          Time[fs]        Kin.[a.u.]          Temp[K]            Pot.[a.u.]        Cons Qty[a.u.]        UsedTime[s]
         0            0.000000         6.198765522       298.000000000       -62.424986433       -56.224316231         0.000000000
         1            0.500000         5.865665961       281.986542387       -62.085906515       -56.204615572         1.311562300
         2            1.000000         5.228676653       251.363862245       -61.360962996       -56.166304472         0.312985897
         3            1.500000         4.753703328       228.529952766       -60.820376847       -56.147458689         0.310865879
         4            2.000000         4.751932178       228.444806304       -60.749215193       -56.163558122         0.312766075
         5            2.500000         4.939122182       237.443795091       -60.915512493       -56.191283382         0.303424835
         6            3.000000         4.977006617       239.265054750       -60.908709821       -56.196884725         0.308554173
         7            3.500000         4.804709656       230.982035474       -60.639337153       -56.175627184         0.303430080
         8            4.000000         4.660944518       224.070657556       -60.408599341       -56.155637297         0.302420855
         9            4.500000         4.806876935       231.086225417       -60.503597288       -56.163951437         0.301776886
        10            5.000000         5.129877656       246.614190557       -60.797463952       -56.193142313         0.301178217
        11            5.500000         5.234021233       251.620798048       -60.855960112       -56.208315908         0.296966791
        12            6.000000         4.906004820       235.851708108       -60.449337567       -56.188320450         0.307580233
        13            6.500000         4.416263488       212.307840118       -59.867354505       -56.151626155         0.297726870
        14            7.000000         4.320021716       207.681104700       -59.650022598       -56.137913117         0.302842855
        15            7.500000         4.694291099       225.673763995       -59.999520411       -56.164241962         0.296057224
        16            8.000000         5.241884364       251.998810884       -60.522133145       -56.204415494         0.554069996
        17            8.500000         5.357406397       257.552427293       -60.612532151       -56.216902220         0.306298971
        18            9.000000         4.906707813       235.885503855       -60.076156469       -56.190400769         0.308637142
        19            9.500000         4.225861422       203.154434445       -59.295671117       -56.154722709         0.306105852
        20           10.000000         3.870315128       186.061870588       -58.791556167       -56.146374979         0.305199146
        21           10.500000         3.868405169       185.970051012       -58.690867566       -56.168158405         0.314084768
        22           11.000000         3.959911295       190.369124591       -58.675502439       -56.187850433         0.297244072
        23           11.500000         3.853118441       185.235155536       -58.445116264       -56.177406479         0.344652176
        24           12.000000         3.682522296       177.033901432       -58.135584108       -56.147228729         0.423833847
        25           12.500000         3.834304361       184.330685777       -58.174440178       -56.135983951         0.309950829
        26           13.000000         4.450782477       213.967309079       -58.718174819       -56.163321899         0.350364923
        27           13.500000         5.105603415       245.447228570       -59.350399906       -56.203965269         0.425213337
        28           14.000000         5.239584868       251.888264729       -59.455120579       -56.213113455         0.388614893
        29           14.500000         4.787934894       230.175604050       -58.887224475       -56.178259909         0.435520887
        30           15.000000         4.190274866       201.443643199       -58.150137594       -56.133591650         0.404978991
        31           15.500000         4.066675106       195.501697451       -57.897429195       -56.124408090         0.422588110
        32           16.000000         4.477404458       215.247136533       -58.270084655       -56.158184447         0.411748886
        33           16.500000         5.013335437       241.011529663       -58.766142189       -56.196145786         0.901323080
        34           17.000000         5.126581612       246.455736214       -58.809079993       -56.197409185         0.358416080
        35           17.500000         4.775707604       229.587788269       -58.357505113       -56.163909258         0.551423073
        36           18.000000         4.389849975       211.038034600       -57.890761103       -56.136427477         0.543473959
        37           18.500000         4.391332160       211.109289302       -57.809846675       -56.145641733         0.438540936
        38           19.000000         4.568050238       219.604849734       -57.980498519       -56.176390595         0.388731956
        39           19.500000         4.605623838       221.411166293       -57.950900736       -56.186483511         0.373780012
        40           20.000000         4.364787725       209.833189772       -57.570340334       -56.157431345         0.321259975
        41           20.500000         4.220704857       202.906537278       -57.253175977       -56.119403587         0.324785233
        42           21.000000         4.575161970       219.946739747       -57.552804404       -56.118715687         0.318681717
        43           21.500000         5.505808729       264.686734078       -58.471992969       -56.163518369         0.331898212
        44           22.000000         6.340291967       304.803754822       -59.333663925       -56.210978334         0.336016893
        45           22.500000         6.373065930       306.379333182       -59.426502560       -56.212648886         0.419490099
        46           23.000000         5.751507816       276.498493643       -58.728455914       -56.167974698         0.397072792
        47           23.500000         5.013894439       241.038403158       -57.902006771       -56.124032103         0.313399076
        48           24.000000         4.749169920       228.312013286       -57.596679526       -56.123474130         0.321536064
        49           24.500000         4.960705924       238.481413794       -57.827551715       -56.159309862         0.377856970
        50           25.000000         5.202886352       250.124017040       -58.065324012       -56.185910829         0.582011938
        51           25.500000         5.083076494       244.364267371       -57.915138619       -56.172059320         0.304925203
        52           26.000000         4.816928779       231.569458657       -57.572710371       -56.137589026         0.298712015
        53           26.500000         4.826592126       232.034015260       -57.536005959       -56.127626502         0.305555820
        54           27.000000         5.284315972       254.038671783       -57.944423647       -56.157962222         0.302217007
        55           27.500000         5.678862627       273.006142436       -58.344470016       -56.194285276         0.343525887
        56           28.000000         5.582040513       268.351507568       -58.199821867       -56.191067479         0.316283226
        57           28.500000         5.052421870       242.890574244       -57.560867812       -56.146043536         0.303395748
        58           29.000000         4.689446932       225.440885103       -57.089085050       -56.105681739         0.303261280
        59           29.500000         5.025528236       241.597687312       -57.381789469       -56.115510542         0.312670946
        60           30.000000         5.901253053       283.697359357       -58.292217054       -56.168206644         0.313017845
        61           30.500000         6.591770118       316.893337593       -59.034194010       -56.210132535         0.377456188
        62           31.000000         6.555831914       315.165641208       -58.985544948       -56.200653769         0.387353897
        63           31.500000         5.893740231       283.336187298       -58.285576801       -56.155047699         0.303632021
        64           32.000000         5.288673456       254.248153829       -57.605255274       -56.124432460         0.307608128
        65           32.500000         5.124637069       246.362254119       -57.401409567       -56.137582872         0.311007977
        66           33.000000         5.210374412       250.483998681       -57.489173768       -56.170406561         0.296938896
        67           33.500000         5.156354431       247.887037346       -57.388658874       -56.177047774         0.553720951
        68           34.000000         4.859901904       233.635352460       -56.998025501       -56.145546895         0.306513071
        69           34.500000         4.737587777       227.755212308       -56.772988152       -56.113509418         0.323356867
        70           35.000000         5.170645517       248.574068277       -57.177013258       -56.124125903         0.310360193
        71           35.500000         6.019896540       289.401036803       -58.043869955       -56.173252530         0.324765921
        72           36.000000         6.536076240       314.215905227       -58.636741235       -56.210171658         0.325784922
        73           36.500000         6.337143647       304.652402189       -58.412807816       -56.194101324         0.410829067
        74           37.000000         5.603704428       269.392980548       -57.615618691       -56.140338932         0.310693979
        75           37.500000         5.101629745       245.256197993       -57.039242239       -56.104373247         0.328738928
        76           38.000000         5.323573023       255.925918679       -57.219911765       -56.122286181         0.309616089
        77           38.500000         6.001547653       288.518930789       -57.894900937       -56.171914451         0.402756214
        78           39.000000         6.426443677       308.945419695       -58.327409221       -56.198873020         0.310490847
        79           39.500000         6.237948672       299.883694221       -58.112854828       -56.177323047         0.332684994
        80           40.000000         5.730083923       275.468559542       -57.566075357       -56.137778911         0.298555851
        81           40.500000         5.468907158       262.912724687       -57.266458744       -56.128079458         0.296997070
        82           41.000000         5.570366025       267.790267223       -57.359523247       -56.156858602         0.309194088
        83           41.500000         5.639584313       271.117873306       -57.423267616       -56.184860544         0.302189827
        84           42.000000         5.293080971       254.460041077       -57.050623215       -56.171391490         0.566313267
        85           42.500000         4.792003322       230.371190036       -56.440475777       -56.125559386         0.286299944
        86           43.000000         4.718603387       226.842555098       -56.265412342       -56.098596769         0.312112808
        87           43.500000         5.404517180       259.817235224       -56.920024593       -56.126107134         0.289653063
        88           44.000000         6.407962325       308.056945550       -57.988924644       -56.184977896         0.325131893
        89           44.500000         6.992694945       336.167433053       -58.588516131       -56.215957883         0.296158075
        90           45.000000         6.638559755       319.142706725       -58.257675959       -56.188558649         0.285346985
        91           45.500000         5.857115747       281.575498616       -57.403872980       -56.134416886         0.313530207
        92           46.000000         5.321296008       255.816453280       -56.830534448       -56.110196797         0.321828842
        93           46.500000         5.417795438       260.455575381       -56.901376152       -56.136041231         0.291435957
        94           47.000000         5.784478272       278.083518252       -57.242029170       -56.175663966         0.316049099
        95           47.500000         5.852086594       281.333726684       -57.266036923       -56.180754993         0.292221069
        96           48.000000         5.518676100       265.305321217       -56.888918243       -56.147107881         0.303226709
        97           48.500000         5.331895350       256.326006973       -56.594522899       -56.118701783         0.312701941
        98           49.000000         5.527885557       265.748057443       -56.791224030       -56.133429888         0.289165258
        99           49.500000         5.940467437       285.582555125       -57.255396423       -56.177057882         0.298479080
       100           50.000000         6.016435087       289.234630633       -57.345948855       -56.197615352         0.317800999
       101           50.500000         5.458678464       262.420989580       -56.770019205       -56.165936497         0.312199831
       102           51.000000         4.831794129       232.284096791       -55.998004519       -56.111781832         0.576160908
       103           51.500000         4.774070678       229.509094550       -55.827143816       -56.092608113         0.287460327
       104           52.000000         5.525653447       265.640750813       -56.544458668       -56.131358949         0.319892883
       105           52.500000         6.505436864       312.742945156       -57.570802155       -56.189023751         0.310343981
       106           53.000000         6.917800081       332.566930779       -58.039848049       -56.207357742         0.329085827
       107           53.500000         6.580654123       316.358946285       -57.671928703       -56.172828183         0.303310156
       108           54.000000         5.904068061       283.832688288       -56.975475727       -56.128257119         0.324449062
       109           54.500000         5.555020603       267.052550035       -56.612507814       -56.122110761         0.299710989
       110           55.000000         5.599163424       269.174675925       -56.680832636       -56.154165734         0.290845871
       111           55.500000         5.659001888       272.051355499       -56.717292849       -56.178737534         0.300887108
       112           56.000000         5.331262652       256.295590600       -56.365811787       -56.161177040         0.295972109
       113           56.500000         4.895911199       235.366466489       -55.886048131       -56.119789950         0.289286852
       114           57.000000         4.952904902       238.106386788       -55.882020204       -56.105789575         0.289186001
       115           57.500000         5.609230843       269.658657920       -56.554274426       -56.142443897         0.305046082
       116           58.000000         6.306439563       303.176331374       -57.356008629       -56.194500351         0.305756807
       117           58.500000         6.449043671       310.031893809       -57.515626211       -56.205893943         0.300783157
       118           59.000000         5.847901577       281.132535792       -56.870998082       -56.162585401         0.283033848
       119           59.500000         5.095059058       244.940318195       -56.068534414       -56.109335823         0.284792185
       120           60.000000         5.002073230       240.470109314       -55.898509094       -56.101065598         0.297199726
       121           60.500000         5.577811893       268.148220530       -56.488521593       -56.143590210         0.567751169
       122           61.000000         6.290020669       302.387008008       -57.208443346       -56.188554680         0.303885221
       123           61.500000         6.475608074       311.308953259       -57.384646770       -56.188856011         0.299493790
       124           62.000000         6.128598786       294.626798162       -57.001181959       -56.150729443         0.317888021
       125           62.500000         5.765808975       277.186008805       -56.614718021       -56.123560779         0.324748039
       126           63.000000         5.773118443       277.537404811       -56.624007209       -56.139385258         0.328371048
       127           63.500000         5.932991100       285.223137055       -56.795759597       -56.176050187         0.330549955
       128           64.000000         5.717204614       274.849398510       -56.595675643       -56.183308593         0.344907045
       129           64.500000         5.078733594       244.155486410       -55.927096700       -56.144967444         0.309964895
       130           65.000000         4.618179760       222.014780793       -55.357566519       -56.100000121         0.316178083
       131           65.500000         4.877604270       234.486377535       -55.547743160       -56.100376521         0.335465908
       132           66.000000         5.778879189       277.814347442       -56.488833548       -56.151573298         0.327875137
       133           66.500000         6.656611686       320.010536865       -57.415343318       -56.203114065         0.312414885
       134           67.000000         6.789975401       326.421875868       -57.556946852       -56.203112141         0.292105913
       135           67.500000         6.188859524       297.523778191       -56.916060402       -56.154761689         0.304398060
       136           68.000000         5.567157347       267.636012945       -56.209150995       -56.111467156         0.583185911
       137           68.500000         5.498810803       264.350315178       -56.077191279       -56.116423499         0.319063187
       138           69.000000         5.866560875       282.029564563       -56.455441280       -56.157130630         0.319928885
       139           69.500000         6.171116516       296.670799275       -56.745664077       -56.182129044         0.322589159
       140           70.000000         6.027954828       289.788431660       -56.575523225       -56.162634438         0.311183691
       141           70.500000         5.670617866       272.609783083       -56.226972799       -56.125859715         0.310600996
       142           71.000000         5.700520934       274.047345781       -56.241557645       -56.119882728         0.311777115
       143           71.500000         6.136177356       294.991131026       -56.700010886       -56.157065849         0.315274000
       144           72.000000         6.482189313       311.625340322       -57.050727894       -56.195270955         0.307771206
       145           72.500000         6.156757949       295.980524238       -56.732428646       -56.186527843         0.308984995
       146           73.000000         5.352477198       257.315460556       -55.879048824       -56.133756227         0.310798883
       147           73.500000         4.844378110       232.889060219       -55.274165346       -56.090792583         0.297530174
       148           74.000000         5.192362900       249.618111666       -55.552295751       -56.103863673         0.300843000
       149           74.500000         6.117144857       294.076160972       -56.520563789       -56.160046526         0.311612844
       150           75.000000         6.899913937       331.707070695       -57.339729662       -56.201257158         0.311542988
       151           75.500000         6.972008861       335.172968431       -57.389169795       -56.188297504         0.309583902
       152           76.000000         6.446880940       309.927922507       -56.855404393       -56.142617720         0.310952902
       153           76.500000         6.028070008       289.793968846       -56.414051835       -56.118138177         0.550960302
       154           77.000000         6.014219603       289.128123265       -56.430336858       -56.138943045         0.314683914
       155           77.500000         6.183772445       297.279221521       -56.606341403       -56.173460416         0.309790850
       156           78.000000         6.015349580       289.182445843       -56.441329264       -56.174490257         0.302541018
       157           78.500000         5.601432080       269.283739481       -55.922907792       -56.136538963         0.299503088
       158           79.000000         5.336495248       256.547142876       -55.605008904       -56.103649640         0.300804853
       159           79.500000         5.714621738       274.725229079       -55.967110336       -56.118863410         0.335379362
       160           80.000000         6.500812729       312.520644059       -56.780202731       -56.171525310         0.338708878
       161           80.500000         6.907184848       332.056613125       -57.257098829       -56.206296601         0.342040777
       162           81.000000         6.499220807       312.444113895       -56.885947218       -56.184593218         0.351452351
       163           81.500000         5.704341724       274.231026769       -55.997549267       -56.127874835         0.340058804
       164           82.000000         5.186039553       249.314122532       -55.434637291       -56.094983018         0.328399181
       165           82.500000         5.430140165       261.049036858       -55.688648530       -56.117601007         0.305168867
       166           83.000000         6.140081832       295.178835133       -56.428062053       -56.167686023         0.305877924
       167           83.500000         6.562177436       315.470696402       -56.909212044       -56.190096771         0.312537193
       168           84.000000         6.447034973       309.935327476       -56.796476609       -56.165590820         0.302189827
       169           84.500000         6.118513748       294.141969180       -56.448463501       -56.129804948         0.311778069
       170           85.000000         6.052869721       290.986192443       -56.388760923       -56.128272019         0.561463833
       171           85.500000         6.233187232       299.654792348       -56.639798994       -56.162648275         0.308495283
       172           86.000000         6.287388183       302.260453648       -56.700813068       -56.188401418         0.306096792
       173           86.500000         5.805912692       279.113958469       -56.201845806       -56.168307785         0.306477070
       174           87.000000         5.131080103       246.671997083       -55.444716955       -56.118409803         0.336930752
       175           87.500000         4.939342261       237.454375164       -55.164202526       -56.092675092         0.305537224
       176           88.000000         5.545024926       266.572017006       -55.737629030       -56.123147497         0.290385008
       177           88.500000         6.482987960       311.663734548       -56.709251905       -56.181303990         0.294780016
       178           89.000000         6.911615852       332.269629606       -57.206326004       -56.207251023         0.288295746
       179           89.500000         6.589080710       316.764046784       -56.843970500       -56.176621082         0.302345276
       180           90.000000         5.881127822       282.729857226       -56.075020533       -56.125062876         0.306666851
       181           90.500000         5.473614120       263.139007591       -55.666224942       -56.107561359         0.296242237
       182           91.000000         5.652544245       271.740910219       -55.882998227       -56.137572571         0.308730841
       183           91.500000         6.075192076       292.059319280       -56.288882849       -56.174707429         0.538866758
       184           92.000000         6.134548505       294.912825486       -56.335525059       -56.173874023         0.362205267
       185           92.500000         5.851365613       281.299066189       -56.029088364       -56.138618364         0.401972055
       186           93.000000         5.757276613       276.775823296       -55.882418253       -56.115174323         0.332129955
       187           93.500000         6.073897090       291.997064022       -56.231910277       -56.137264366         0.336759090
       188           94.000000         6.534283365       314.129714373       -56.749432757       -56.182727059         0.344166994
       189           94.500000         6.488690867       311.937896606       -56.768425580       -56.198495580         0.340771914
       190           95.000000         5.803530659       278.999444375       -56.064926237       -56.161609805         0.335603952
       191           95.500000         5.028665094       241.748488944       -55.191065589       -56.107301394         0.320646048
       192           96.000000         4.870858173       234.162065077       -54.949797269       -56.092125305         0.380408049
       193           96.500000         5.504617149       264.629449953       -55.568271763       -56.131882653         0.363417864
       194           97.000000         6.379031111       306.666103838       -56.452613766       -56.184435562         0.324210167
       195           97.500000         6.738405500       323.942699887       -56.814436574       -56.195778717         0.325185061
       196           98.000000         6.465138550       310.805640441       -56.474178076       -56.159815338         0.293366671
       197           98.500000         5.994347253       288.172778125       -55.955581679       -56.121665622         0.296177149
       198           99.000000         5.861827831       281.802027747       -55.821956357       -56.124102055         0.291461945
       199           99.500000         6.076630364       292.128463649       -56.042524017       -56.158930256         0.315850973
       200          100.000000         6.140024490       295.176078453       -56.109563064       -56.179115520         0.310117245
       201          100.500000         5.792839052       278.485455143       -55.730993803       -56.155402409         0.304708719
       202          101.000000         5.380937702       258.683673304       -55.256206855       -56.113303743         0.548621178
       203          101.500000         5.443770983       261.704326007       -55.300286823       -56.104203650         0.311914921
       204          102.000000         6.094058340       292.966297705       -55.989910530       -56.144789164         0.296215057
       205          102.500000         6.753523104       324.669464932       -56.718885620       -56.194919465         0.304831028
       206          103.000000         6.709727369       322.564024909       -56.746098972       -56.200623014         0.301553965
       207          103.500000         6.011017216       288.974171417       -55.999019730       -56.154574294         0.301316977
       208          104.000000         5.321739856       255.837790857       -55.161201340       -56.104286260         0.299267769
       209          104.500000         5.196817929       249.832283109       -54.975496371       -56.100541753         0.292850256
       210          105.000000         5.728897914       275.411543205       -55.505367024       -56.142988590         0.302984953
       211          105.500000         6.305455648       303.129030565       -56.124053015       -56.181932666         0.291749954
       212          106.000000         6.430830328       309.156303951       -56.252456133       -56.176499639         0.294205189
       213          106.500000         6.197921967       297.959446881       -55.963158371       -56.139691716         0.294978857
       214          107.000000         6.077312905       292.161276216       -55.790809766       -56.120285031         0.294612885
       215          107.500000         6.316241007       303.647526844       -56.017650326       -56.143487861         0.293874264
       216          108.000000         6.543523429       314.573922046       -56.301154966       -56.180790301         0.298598766
       217          108.500000         6.368577609       306.163561239       -56.098025757       -56.183366032         0.545833111
       218          109.000000         5.710737684       274.538506713       -55.379238303       -56.140880921         0.307898045
       219          109.500000         5.160649517       248.093519704       -54.775190461       -56.096923628         0.313813925
       220          110.000000         5.336662704       256.555193178       -54.934658165       -56.101068579         0.307256937
       221          110.500000         6.206759138       298.384285802       -55.792370724       -56.152917131         0.308195114
       222          111.000000         6.918846318       332.617227656       -56.572929449       -56.199317052         0.294991016
       223          111.500000         6.919173165       332.632940556       -56.585271916       -56.193588085         0.292406082
       224          112.000000         6.286110542       302.199032195       -55.911517723       -56.145503506         0.298842907
       225          112.500000         5.679004429       273.012959416       -55.266097065       -56.108577762         0.302611828
       226          113.000000         5.649922312       271.614863169       -55.196580471       -56.119297210         0.309028149
       227          113.500000         5.971522126       287.075480971       -55.552620976       -56.158462323         0.303349018