      24
 i =       0, E =     -143.9445732094
  O        -1.6545963509        0.9860292675       -0.0826548747
  O        -3.8817089746        0.7449834880        0.4199984807
  S        -2.6352753074        0.2477556801        0.3929079422
  H         0.9175550020        2.0385833629        0.5448514419
  H         0.3731392819        1.1151411597       -1.9371908666
  H         5.4173614743        1.1614093273       -0.5750189116
  H         5.0716257934        0.5734571341       -2.2494633833
  H         5.0655992901        2.2866316843       -1.8736067775
 Cl        -2.6762188483       -3.8548681181        0.2833728600
 Cl        -2.0896482214       -2.6779035007        3.2226939007
 Cl        -1.9231272736        0.6162739862        3.2895761594
 Cl        -2.9668614691       -1.5076783370       -2.0191245353
  C        -2.5445714715       -2.2271443254        0.5672573350
  C        -2.2847440362       -1.6909763615        1.9032953467
  C        -2.1988625843       -0.3545213048        1.9647603239
  C         1.5229021203        1.6660301956       -0.1787976482
  C         1.2495736783        1.2013390757       -1.4246594597
  C        -2.6512246083       -1.3017725403       -0.3954619515
  N         3.4586620022        1.2161532732       -1.1707136717
  C         2.4883061471        0.9345984876       -2.1091615413
  O         2.6627415357        0.5456585224       -3.2479987369
  C         2.9523602337        1.7258281041        0.0039180990
  O         3.5962125082        2.1261498084        0.9570112524
  C         4.8302696153        1.3146492739       -1.4859159447
      24
 i =       1, E =     -144.1224900381
  O        -1.4808065256        1.1436501141       -0.1776769760
  O        -4.0895279528        0.8273926555        0.4255244414
  S        -2.6304532631        0.1343522871        0.4376472452
  H         0.8786075702        2.0511538524        0.5734154745
  H         0.3279097617        1.1116659324       -1.9497899782
  H         5.4074088496        1.1423913556       -0.5662525466
  H         5.0623761417        0.5536565914       -2.2402978233
  H         5.0609966451        2.2820341726       -1.8706862366
 Cl        -2.6632197481       -3.8571158933        0.2808376261
 Cl        -2.0763603989       -2.6798114564        3.2221166480
 Cl        -1.9187199646        0.6167418899        3.2826096200
 Cl        -2.9604322217       -1.5033629580       -2.0169880705
  C        -2.5335594611       -2.2298809240        0.5623306374
  C        -2.2725964250       -1.6893259087        1.9034324148
  C        -2.1828687903       -0.3799157673        2.0246873301
  C         1.4934294901        1.6510225547       -0.2099317979
  C         1.2338998851        1.2132519579       -1.3836318907
  C        -2.6517960481       -1.3607024531       -0.4229018590
  N         3.4944766526        1.1916244017       -1.1702184679
  C         2.4643693896        0.9089487337       -2.1512910025
  O         2.6559110864        0.5355182299       -3.2426574354
  C         2.9472339195        1.7372724951        0.0596497561
  O         3.5854842544        2.1158133342        0.9605908967
  C         4.8488627557        1.2933657061       -1.4822807979
      24
 i =       2, E =     -144.1445143508
  O        -1.4753799523        1.1606391771       -0.1852839961
  O        -4.1177678600        0.8364636571        0.4274787299
  S        -2.6245598696        0.1827076408        0.4173406848
  H         0.8662127310        2.0516560521        0.5764724630
  H         0.3156358968        1.1114404843       -1.9481620746
  H         5.4061238592        1.1323042776       -0.5600452445
  H         5.0606556010        0.5417002373       -2.2381306335
  H         5.0604370851        2.2782993347       -1.8691531989
 Cl        -2.6564368712       -3.8615430833        0.2811944801
 Cl        -2.0695392328       -2.6841606987        3.2227875105
 Cl        -1.9152081165        0.6197102517        3.2845774194
 Cl        -2.9581189831       -1.5029567266       -2.0218150305
  C        -2.5263110564       -2.2491094737        0.5697949642
  C        -2.2657913754       -1.7097815724        1.9081493757
  C        -2.1775865213       -0.3779307191        2.0415794839
  C         1.4881457034        1.6685589092       -0.1647521709
  C         1.2123422534        1.1988799170       -1.4234552982
  C        -2.6521717676       -1.3714435384       -0.4360711769
  N         3.4795122469        1.1798792944       -1.1619978152
  C         2.4584026615        0.9179871050       -2.1095904714
  O         2.6564552075        0.5171902649       -3.2784185290
  C         2.9231087144        1.7174326783        0.0248241650
  O         3.6018691025        2.1255019196        0.9981555530
  C         4.8615256040        1.2885527382       -1.4832327430
      24
 i =       3, E =     -144.1617309969
  O        -1.4679108320        1.1764652626       -0.1928280728
  O        -4.1365195942        0.8421371039        0.4289537744
  S        -2.6249786324        0.2073786380        0.4075614035
  H         0.8520819515        2.0554118065        0.5855722991
  H         0.2996535952        1.1103031662       -1.9516890022
  H         5.4057044708        1.1250013206       -0.5555795134
  H         5.0598507112        0.5330080368       -2.2367193088
  H         5.0603381312        2.2760747168       -1.8683034285
 Cl        -2.6515969900       -3.8675566290        0.2813872543
 Cl        -2.0642680107       -2.6892901441        3.2251838007
 Cl        -1.9123689725        0.6223537629        3.2875798985
 Cl        -2.9567213524       -1.5033538803       -2.0266013500
  C        -2.5220141409       -2.2524300415        0.5675505128
  C        -2.2606352590       -1.7107043689        1.9100509906
  C        -2.1759720821       -0.3869676251        2.0456030909
  C         1.4750496425        1.6616988534       -0.1829404244
  C         1.2088901933        1.2066401706       -1.4022805226
  C        -2.6506493428       -1.3805181319       -0.4332343093
  N         3.4806555144        1.1711207119       -1.1587399093
  C         2.4612806883        0.9022746422       -2.1432069757
  O         2.6490704696        0.5216553810       -3.2527186419
  C         2.9414738181        1.7267546175        0.0573658396
  O         3.5827640620        2.1133493401        0.9794392054
  C         4.8626692197        1.2836920846       -1.4816890480
      24
 i =       4, E =     -144.1682053624
  O        -1.4571089597        1.1998023689       -0.2038795099
  O        -4.1610928454        0.8493379787        0.4310465461
  S        -2.6280001281        0.2385936527        0.3957973594
  H         0.8364185996        2.0572731629        0.5917005521
  H         0.2839188900        1.1096709004       -1.9515735272
  H         5.4056970478        1.1146120992       -0.5501042359
  H         5.0595257846        0.5211598023       -2.2342712987
  H         5.0607957446        2.2722397056       -1.8670104286
 Cl        -2.6445181047       -3.8770855796        0.2821125334
 Cl        -2.0566357410       -2.6974069085        3.2286441059
 Cl        -1.9084478388        0.6249173164        3.2911860282
 Cl        -2.9543912716       -1.5042718674       -2.0319760149
  C        -2.5150942044       -2.2590462059        0.5692310495
  C        -2.2538516508       -1.7178220133        1.9109891987
  C        -2.1740178608       -0.3916189495        2.0490478877
  C         1.4683390809        1.6662240729       -0.1734501271
  C         1.1992152891        1.2049041044       -1.4092758769
  C        -2.6492198807       -1.3865554855       -0.4330434977
  N         3.4798131327        1.1583489356       -1.1536743198
  C         2.4513140152        0.9073774421       -2.1128953019
  O         2.6482500752        0.5073988205       -3.2756931270
  C         2.9190152691        1.7127323635        0.0366657707
  O         3.5911447995        2.1176005726        1.0047182741
  C         4.8635537279        1.2766922892       -1.4795114526
      24
 i =       5, E =     -144.1755378247
  O        -1.4519861720        1.2123710200       -0.2096831735
  O        -4.1726672644        0.8526506418        0.4320985045
  S        -2.6307336687        0.2526853060        0.3907107320
  H         0.8279567307        2.0582754829        0.5951281394
  H         0.2753885483        1.1092426364       -1.9516437470
  H         5.4057527848        1.1091241937       -0.5476942517
  H         5.0595768098        0.5151726718       -2.2326718697
  H         5.0611149890        2.2696082462       -1.8661478503
 Cl        -2.6405424623       -3.8825335516        0.2827424439
 Cl        -2.0524116029       -2.7021964463        3.2304869311
 Cl        -1.9064096912        0.6255377024        3.2927438001
 Cl        -2.9529623129       -1.5050974518       -2.0340940912
  C        -2.5114816872       -2.2614776576        0.5692308508
  C        -2.2501663594       -1.7200169096        1.9114202110
  C        -2.1735229522       -0.3937239940        2.0488619383
  C         1.4596843953        1.6662306476       -0.1756549588
  C         1.1926047560        1.2073605826       -1.4047640521
  C        -2.6484210960       -1.3878149021       -0.4317680706
  N         3.4789538719        1.1511528219       -1.1507168492
  C         2.4535163472        0.8954913151       -2.1382029816
  O         2.6418112311        0.5117502319       -3.2531325145
  C         2.9319431109        1.7194777398        0.0605843100
  O         3.5751178771        2.1076236858        0.9889465583
  C         4.8646698617        1.2727623524       -1.4783793680
      24
 i =       6, E =     -144.1789573050
  O        -1.4455312150        1.2308119041       -0.2179823539
  O        -4.1889799256        0.8573601736        0.4336015511
  S        -2.6349884663        0.2727857276        0.3835437436
  H         0.8155251550        2.0592112154        0.5991123023
  H         0.2633263140        1.1088474925       -1.9507507497
  H         5.4063580551        1.1008838698       -0.5445948693
  H         5.0602742847        0.5064878086       -2.2300911324
  H         5.0620359305        2.2652811537       -1.8648733542
 Cl        -2.6344009254       -3.8906534666        0.2838966696
 Cl        -2.0459912883       -2.7095006875        3.2329805457
 Cl        -1.9034197446        0.6258371633        3.2947057737
 Cl        -2.9506473939       -1.5065618415       -2.0365461766
  C        -2.5060233380       -2.2647838343        0.5693547175
  C        -2.2446997675       -1.7234171449        1.9118501773
  C        -2.1730647194       -0.3957843207        2.0476492660
  C         1.4543200544        1.6682460016       -0.1739572619
  C         1.1872668274        1.2084112670       -1.4054048633
  C        -2.6473695864       -1.3883630055       -0.4298134291
  N         3.4770666928        1.1401784319       -1.1461850575
  C         2.4450264680        0.8995327740       -2.1143855308
  O         2.6405954400        0.5012122102       -3.2684784355
  C         2.9139701009        1.7087398450        0.0449227604
  O         3.5797881051        2.1097870791        1.0066309278
  C         4.8643754380        1.2668053412       -1.4762477581
      24
 i =       7, E =     -144.1834501409
  O        -1.4437583069        1.2377979162       -0.2209829824
  O        -4.1947231291        0.8590931870        0.4341228603
  S        -2.6367502960        0.2800135999        0.3810043148
  H         0.8110607076        2.0593069902        0.6001924856
  H         0.2591618493        1.1087217445       -1.9500992493
  H         5.4066837022        1.0976958233       -0.5436198017
  H         5.0606935994        0.5032706540       -2.2289652265
  H         5.0624339243        2.2633257841       -1.8643165348
 Cl        -2.6318654220       -3.8936391382        0.2845020629
 Cl        -2.0434266713       -2.7123846025        3.2337469159
 Cl        -1.9023037046        0.6255144276        3.2951800506
 Cl        -2.9496370778       -1.5072534316       -2.0370515219
  C        -2.5039151181       -2.2659020483        0.5692970985
  C        -2.2425869800       -1.7244623697        1.9118747512
  C        -2.1730412997       -0.3962091588        2.0468122901
  C         1.4498020585        1.6693595923       -0.1731037645
  C         1.1829028701        1.2092761277       -1.4051156650
  C        -2.6470322693       -1.3880268083       -0.4289305161
  N         3.4764863464        1.1357069365       -1.1442790998
  C         2.4458366513        0.8931665397       -2.1275880124
  O         2.6368139725        0.5036121376       -3.2556215145
  C         2.9202415619        1.7120870496        0.0574004857
  O         3.5707029993        2.1041582930        0.9979810959
  C         4.8644701872        1.2643801806       -1.4753994367
      24
 i =       8, E =     -144.1906543232
  O        -1.4240320722        1.3328010454       -0.2609018768
  O        -4.2709559964        0.8829035793        0.4408567993
  S        -2.6604746947        0.3762195877        0.3473687554
  H         0.7472630299        2.0608791242        0.6154012516
  H         0.1996260067        1.1072580289       -1.9408850083
  H         5.4129280788        1.0539706189       -0.5317769339
  H         5.0685484106        0.4599148773       -2.2130844781
  H         5.0691498088        2.2352824183       -1.8565857020
 Cl        -2.5962696206       -3.9336206213        0.2935816826
 Cl        -2.0079237311       -2.7517256082        3.2426475380
 Cl        -1.8871806841        0.6191461318        3.3006067108
 Cl        -2.9352481728       -1.5174122073       -2.0418054665
  C        -2.4751378743       -2.2793885520        0.5679798706
  C        -2.2137259440       -1.7375173057        1.9118355523
  C        -2.1736251105       -0.4014111255        2.0334765632
  C         1.4108458826        1.6810062294       -0.1705553744
  C         1.1469050947        1.2208773911       -1.4012537910
  C        -2.6428743096       -1.3818150937       -0.4159672119
  N         3.4646200912        1.0733842251       -1.1186393737
  C         2.4171645257        0.8812554566       -2.0959759026
  O         2.6147947890        0.4772143478       -3.2496330029
  C         2.8815849428        1.6885672845        0.0564166829
  O         3.5429849252        2.0844240359        1.0185335145
  C         4.8610397114        1.2307485882       -1.4629249250
      24
 i =       9, E =     -144.1934066180
  O        -1.4274953332        1.3340276888       -0.2606819806
  O        -4.2696563020        0.8834624089        0.4405018153
  S        -2.6614532833        0.3763267883        0.3475278042
  H         0.7467948728        2.0599696923        0.6138662983
  H         0.1999276075        1.1075352851       -1.9392493927
  H         5.4139681520        1.0532139616       -0.5326839764
  H         5.0698932726        0.4597189320       -2.2124014214
  H         5.0697216092        2.2335743739       -1.8561809455
 Cl        -2.5948125374       -3.9334024460        0.2945473233
 Cl        -2.0069388489       -2.7523789620        3.2413725766
 Cl        -1.8870763332        0.6171922229        3.2996993173
 Cl        -2.9345194987       -1.5182532376       -2.0399827210
  C        -2.4747708066       -2.2785186961        0.5676727809
  C        -2.2133621109       -1.7367881644        1.9114173087
  C        -2.1742133343       -0.4009130616        2.0321385120
  C         1.4083963386        1.6829666253       -0.1679812426
  C         1.1437872809        1.2211030959       -1.4032935517
  C        -2.6431108627       -1.3804828066       -0.4152309087
  N         3.4639291826        1.0715329684       -1.1172632109
  C         2.4194727287        0.8756855406       -2.1101855289
  O         2.6116836816        0.4813423779       -3.2360103871
  C         2.8882452475        1.6920066582        0.0663574269
  O         3.5356000426        2.0802269053        1.0099171346
  C         4.8604204386        1.2295233232       -1.4624289879
      24
 i =      10, E =     -144.1942755333
  O        -1.4504876483        1.3434827869       -0.2596900551
  O        -4.2629385757        0.8882192522        0.4381409577
  S        -2.6673726454        0.3765524707        0.3486974315
  H         0.7397631424        2.0556871777        0.6071623411
  H         0.1971692159        1.1090577725       -1.9303689045
  H         5.4216733108        1.0480091569       -0.5385961771
  H         5.0794438420        0.4580637992       -2.2081790965
  H         5.0737416268        2.2220195183       -1.8535276642
 Cl        -2.5846769557       -3.9315872427        0.3011642676
 Cl        -2.0000827784       -2.7567622290        3.2325382462
 Cl        -1.8862373209        0.6042858892        3.2940872582
 Cl        -2.9296285499       -1.5239835872       -2.0280839973
  C        -2.4721243856       -2.2733216281        0.5665809845
  C        -2.2109827192       -1.7326922884        1.9081658216
  C        -2.1780879351       -0.3975331852        2.0236279303
  C         1.4017807152        1.6880332176       -0.1698485116
  C         1.1391697081        1.2268020694       -1.4037359598
  C        -2.6448455601       -1.3719808291       -0.4109618774
  N         3.4594756752        1.0581287997       -1.1095553814
  C         2.4127934631        0.8774703740       -2.0966896538
  O         2.6069659783        0.4769401509       -3.2352549111
  C         2.8771199209        1.6852660229        0.0575177177
  O         3.5299601847        2.0777432662        1.0153848663
  C         4.8543724763        1.2211680212       -1.4583104438
      24
 i =      11, E =     -144.1951473966
  O        -1.4526232449        1.3456820697       -0.2600912968
  O        -4.2639328634        0.8896699938        0.4378568899
  S        -2.6676890162        0.3762409257        0.3488900888
  H         0.7381761730        2.0555808916        0.6070762941
  H         0.1959800053        1.1092047570       -1.9297707896
  H         5.4228462581        1.0472929168       -0.5389456961
  H         5.0806412291        0.4575489410       -2.2079552032
  H         5.0740248952        2.2207983572       -1.8532421868
 Cl        -2.5832781125       -3.9310437349        0.3020526864
 Cl        -1.9991659038       -2.7571558102        3.2311680738
 Cl        -1.8860225087        0.6031471554        3.2940093929
 Cl        -2.9291617750       -1.5247822486       -2.0273132651
  C        -2.4718223885       -2.2733095141        0.5668014081
  C        -2.2107688648       -1.7329107010        1.9078864805
  C        -2.1784605243       -0.3975008569        2.0231488198
  C         1.4011209850        1.6885831275       -0.1702625572
  C         1.1382328405        1.2275864261       -1.4036769808
  C        -2.6450884369       -1.3716323746       -0.4105709009
  N         3.4590180423        1.0560606109       -1.1089365657
  C         2.4136670435        0.8742387525       -2.1044823844
  O         2.6051063218        0.4790041675       -3.2278925336
  C         2.8811219792        1.6880017366        0.0653161208
  O         3.5247585297        2.0748133067        1.0095390725
  C         4.8545541375        1.2203103106       -1.4580257850
      24
 i =      12, E =     -144.1954124736
  O        -1.4553769424        1.3483956782       -0.2605632246
  O        -4.2649705906        0.8914300780        0.4374862476
  S        -2.6682979815        0.3760692408        0.3490907549
  H         0.7362289282        2.0554006738        0.6068343394
  H         0.1944715329        1.1094213678       -1.9289740298
  H         5.4243716866        1.0464073312       -0.5393996652
  H         5.0822016582        0.4569223962       -2.2076874879
  H         5.0744189837        2.2193478597       -1.8529212922
 Cl        -2.5815274916       -3.9304650535        0.3031553881
 Cl        -1.9980056793       -2.7577020615        3.2295063909
 Cl        -1.8857534202        0.6017373809        3.2939568023
 Cl        -2.9285930493       -1.5258024217       -2.0263932522
  C        -2.4714803963       -2.2732147960        0.5669633056
  C        -2.2105033315       -1.7330457358        1.9076080948
  C        -2.1789239643       -0.3975869664        2.0225624106
  C         1.4009914486        1.6892717898       -0.1707096779
  C         1.1379871848        1.2284213498       -1.4038359569
  C        -2.6453827871       -1.3712858763       -0.4100306503
  N         3.4586243882        1.0535659416       -1.1080462261
  C         2.4126004375        0.8746019640       -2.1020831410
  O         2.6045664509        0.4779877611       -3.2288696013
  C         2.8788324984        1.6870394706        0.0640831737
  O         3.5244846750        2.0748510788        1.0113063186
  C         4.8544199169        1.2191583265       -1.4575972344
      24
 i =      13, E =     -144.1964218682
  O        -1.4885006008        1.3795228291       -0.2656514307
  O        -4.2746977993        0.9114782976        0.4329453468
  S        -2.6781082834        0.3768160352        0.3508216924
  H         0.7154080498        2.0525654751        0.6019768555
  H         0.1787918004        1.1123484969       -1.9188768590
  H         5.4423292979        1.0363147227       -0.5447704332
  H         5.1005686602        0.4498182550       -2.2047399064
  H         5.0787604775        2.2031940090       -1.8494080195
 Cl        -2.5610383220       -3.9249411785        0.3159953142
 Cl        -1.9842506151       -2.7649551784        3.2109219413
 Cl        -1.8826567138        0.5853300672        3.2938172239
 Cl        -2.9221753315       -1.5380187245       -2.0162301784
  C        -2.4678574739       -2.2720666115        0.5682876757
  C        -2.2075957434       -1.7338351510        1.9047221530
  C        -2.1842344728       -0.3988495348        2.0165503223
  C         1.3935900339        1.6994479629       -0.1716470594
  C         1.1303267055        1.2376953091       -1.4078419276
  C        -2.6489179446       -1.3677357728       -0.4039801346
  N         3.4546456100        1.0251796132       -1.0965548971
  C         2.4069073136        0.8682260194       -2.1034288846
  O         2.5941315043        0.4747557768       -3.2165699588
  C         2.8724357142        1.6846955241        0.0728278289
  O         3.5073114598        2.0672544880        1.0116126918
  C         4.8530751787        1.2050210677       -1.4524894332
      24
 i =      14, E =     -144.1971991113
  O        -1.4904448442        1.3804937285       -0.2656205948
  O        -4.2742958540        0.9122184408        0.4326587863
  S        -2.6792751040        0.3779346940        0.3506073031
  H         0.7148306077        2.0525172653        0.6015862169
  H         0.1784680487        1.1126088700       -1.9184974121
  H         5.4431631899        1.0360738789       -0.5450451665
  H         5.1013919446        0.4496587755       -2.2047520313
  H         5.0787710615        2.2028860730       -1.8493629335
 Cl        -2.5602331674       -3.9254799230        0.3164455034
 Cl        -1.9836056846       -2.7657203178        3.2106844726
 Cl        -1.8825406351        0.5848369004        3.2942403176
 Cl        -2.9220812901       -1.5386765778       -2.0162575442
  C        -2.4679004052       -2.2720379594        0.5682488137
  C        -2.2076202534       -1.7338139545        1.9047917564
  C        -2.1844732466       -0.3987704149        2.0166568402
  C         1.3931656737        1.6992949193       -0.1731326019
  C         1.1308005685        1.2385028081       -1.4066925295
  C        -2.6492002829       -1.3677168927       -0.4040222544
  N         3.4548754154        1.0244210124       -1.0959580033
  C         2.4055188750        0.8709439785       -2.0953427238
  O         2.5951380019        0.4721754740       -3.2234184956
  C         2.8682849794        1.6817897434        0.0661992768
  O         3.5107463039        2.0694261024        1.0173724312
  C         4.8529996248        1.2043369151       -1.4522359353
      24
 i =      15, E =     -144.1973318795
  O        -1.4952951148        1.3832405092       -0.2656632768
  O        -4.2738498960        0.9143961891        0.4319267236
  S        -2.6819048848        0.3802165526        0.3502143306
  H         0.7136513347        2.0523046750        0.6003271322
  H         0.1781080778        1.1133399296       -1.9173597908
  H         5.4453223442        1.0354660041       -0.5457204683
  H         5.1034768215        0.4492398482       -2.2048102004
  H         5.0786956521        2.2019691789       -1.8491858370
 Cl        -2.5581331081       -3.9267486996        0.3176463155
 Cl        -1.9819441884       -2.7676700393        3.2100025333
 Cl        -1.8822520780        0.5835329200        3.2953420312
 Cl        -2.9218438057       -1.5403984337       -2.0163003102
  C        -2.4680252303       -2.2719819226        0.5681977697
  C        -2.2077233109       -1.7337092609        1.9048802341
  C        -2.1851503359       -0.3986348728        2.0169555528
  C         1.3912455949        1.7002770824       -0.1735553519
  C         1.1295370334        1.2396563976       -1.4065909084
  C        -2.6499840977       -1.3676972630       -0.4040913052
  N         3.4551947701        1.0224026677       -1.0945297417
  C         2.4064729101        0.8689719003       -2.0992048699
  O         2.5940128749        0.4731366157       -3.2197492329
  C         2.8711188751        1.6822763313        0.0692175206
  O         3.5079161095        2.0681327643        1.0151273888
  C         4.8534205108        1.2027855689       -1.4517617587
      24
 i =      16, E =     -144.1977196799
  O        -1.5052246897        1.3895408673       -0.2660043207
  O        -4.2741453866        0.9195121594        0.4304097929
  S        -2.6867301989        0.3838541145        0.3497312913
  H         0.7106889730        2.0521207335        0.5981063949
  H         0.1768063842        1.1148777010       -1.9152411851
  H         5.4500547110        1.0341643977       -0.5471159193
  H         5.1079630124        0.4483239347       -2.2049735444
  H         5.0785083184        2.1998221654       -1.8487411551
 Cl        -2.5536173075       -3.9291687665        0.3202480308
 Cl        -1.9784193752       -2.7716614910        3.2083316374
 Cl        -1.8816568764        0.5807472758        3.2977184777
 Cl        -2.9213553396       -1.5440893517       -2.0163748741
  C        -2.4683077619       -2.2717920444        0.5681526288
  C        -2.2079901757       -1.7335339319        1.9049809975
  C        -2.1867176088       -0.3984841666        2.0175532041
  C         1.3898734883        1.7019653450       -0.1748779573
  C         1.1289183749        1.2417758286       -1.4067960885
  C        -2.6517398665       -1.3677520378       -0.4040739488
  N         3.4560397692        1.0178542275       -1.0920805017
  C         2.4052953865        0.8703991007       -2.0920895710
  O         2.5938985942        0.4707105691       -3.2245399482
  C         2.8677524025        1.6789463121        0.0640874258
  O         3.5087582999        2.0693975829        1.0202664754
  C         4.8541855523        1.1998724713       -1.4508476982
      24
 i =      17, E =     -144.1979577585
  O        -1.5067268379        1.3910507025       -0.2662602737
  O        -4.2751085056        0.9208151757        0.4301589628
  S        -2.6870829318        0.3835364777        0.3499345871
  H         0.7101292457        2.0522066919        0.5978394234
  H         0.1764762365        1.1151673373       -1.9150346620
  H         5.4509650318        1.0339457506       -0.5473300748
  H         5.1087598002        0.4481627330       -2.2050284013
  H         5.0783934013        2.1993434625       -1.8486145003
 Cl        -2.5527604833       -3.9293202679        0.3207693772
 Cl        -1.9777977730       -2.7722412544        3.2078270881
 Cl        -1.8815809921        0.5802096896        3.2981614384
 Cl        -2.9212883451       -1.5447851852       -2.0163481000
  C        -2.4683823208       -2.2718165249        0.5682370977
  C        -2.2080917036       -1.7335752008        1.9049319597
  C        -2.1871090088       -0.3985335108        2.0176776161
  C         1.3901437592        1.7024027129       -0.1745965589
  C         1.1287577680        1.2419182140       -1.4073713801
  C        -2.6521513297       -1.3678132774       -0.4039930498
  N         3.4561364570        1.0168658721       -1.0919661703
  C         2.4059343540        0.8685833805       -2.0966402643
  O         2.5931249527        0.4721106616       -3.2202937720
  C         2.8697258252        1.6804747945        0.0682240030
  O         3.5062807965        2.0679855291        1.0171025760
  C         4.8546567397        1.1996050633       -1.4508553838
      24
 i =      18, E =     -144.1980506146
  O        -1.5099569586        1.3940164317       -0.2667037278
  O        -4.2766668777        0.9233515038        0.4296227243
  S        -2.6880917272        0.3831733423        0.3502921548
  H         0.7089871835        2.0523741251        0.5972588035
  H         0.1757204373        1.1157706677       -1.9146239075
  H         5.4528477350        1.0335245542       -0.5478091174
  H         5.1104368333        0.4478672142       -2.2051448320
  H         5.0782321799        2.1985114070       -1.8484205855
 Cl        -2.5510165205       -3.9296383828        0.3218290216
 Cl        -1.9765351715       -2.7734118854        3.2067881126
 Cl        -1.8814409625        0.5791068001        3.2990691800
 Cl        -2.9211631790       -1.5462100734       -2.0162796700
  C        -2.4685567501       -2.2718824537        0.5683671967
  C        -2.2082979012       -1.7336886610        1.9049159819
  C        -2.1879080280       -0.3986488765        2.0179206687