      24
 i =       0, E =     -144.0637590323
  O        -2.4684860694        1.7911318948       -0.2359355602
  O        -4.1891705384        0.2890204404        0.6859081773
  S        -2.7868594624        0.5097604806        0.3298036355
  H         0.1018878275        2.1207236980        0.6105003044
  H        -0.3965524952        1.1746321912       -1.8327964772
  H         4.1965663155       -0.2916295918        0.2478859991
  H         3.8688136173       -0.9156258428       -1.3942194808
  H         4.2528707900        0.7702522688       -1.1375050946
 Cl        -1.5490060545       -3.4079859538       -0.0964213789
 Cl        -0.9754559381       -2.2547697099        2.8106350680
 Cl        -1.5363796621        0.9416761773        3.0953792734
 Cl        -2.5812995512       -1.1686274861       -2.2256279636
  C        -1.7751190062       -1.8125053901        0.2684424628
  C        -1.5182674402       -1.2913141852        1.5811029970
  C        -1.6909678528        0.0412150984        1.7140975510
  C         0.5513954830        1.3606431875        0.1122112614
  C         0.2943109187        0.8714979741       -1.1494106999
  C        -2.1512424976       -0.8968852787       -0.6486010908
  N         2.3529089048        0.1671937611       -0.5385043614
  C         1.4632252162        0.1756286516       -1.6387612844
  O         1.6638086508       -0.3170273055       -2.7229534942
  C         1.8996710792        1.0068040722        0.5024148318
  O         2.5259453681        1.3194585621        1.4886317283
  C         3.7441207912       -0.0717145706       -0.7193907210
      24
 i =       1, E =     -144.1314208154
  O        -2.4420912871        1.9029409547       -0.2851556282
  O        -4.3006776627        0.2734703561        0.7133789908
  S        -2.7323304162        0.4684973066        0.3355728713
  H         0.0766522480        2.1465133835        0.6321914513
  H        -0.4288456631        1.1825557191       -1.8536532440
  H         4.2031250047       -0.2903134763        0.2482031834
  H         3.8750553886       -0.9162266323       -1.3984764961
  H         4.2633394963        0.7872942377       -1.1462388290
 Cl        -1.5495762976       -3.4183881580       -0.0953983134
 Cl        -0.9751989835       -2.2624889844        2.8164876977
 Cl        -1.5354976085        0.9411587505        3.0923165446
 Cl        -2.5792587084       -1.1673146135       -2.2234793163
  C        -1.7729975715       -1.8157162835        0.2518456408
  C        -1.5103051687       -1.2828588535        1.5943421605
  C        -1.6883509290        0.0213958673        1.7475686188
  C         0.5457098231        1.3462469940        0.0582753555
  C         0.3082515011        0.8975326610       -1.1015585406
  C        -2.1575609913       -0.9330207868       -0.6594312905
  N         2.3798870937        0.1502733106       -0.5378991479
  C         1.4645896541        0.1635442975       -1.6609280495
  O         1.6710784426       -0.3182236770       -2.7300791602
  C         1.9091805814        1.0129478922        0.5259885104
  O         2.5338588320        1.3219261056        1.4903975682
  C         3.7649750450       -0.0799588298       -0.7202497459
      24
 i =       2, E =     -144.1468833473
  O        -2.4371258754        1.9304693509       -0.2969736054
  O        -4.3243110479        0.2705087899        0.7191258741
  S        -2.7343983109        0.4797573076        0.3314615596
  H         0.0706189183        2.1439462094        0.6325542286
  H        -0.4340402647        1.1812404067       -1.8499776038
  H         4.2073194584       -0.2920029177        0.2506075621
  H         3.8786513062       -0.9196830377       -1.4007622768
  H         4.2671391737        0.7909864721       -1.1485342398
 Cl        -1.5480163407       -3.4243462548       -0.0944658913
 Cl        -0.9732597973       -2.2676529305        2.8193132984
 Cl        -1.5340420728        0.9433608993        3.0935207937
 Cl        -2.5785835665       -1.1668601265       -2.2264940184
  C        -1.7643091360       -1.8262070799        0.2593352238
  C        -1.5032981280       -1.2970154218        1.5930924145
  C        -1.6907633711        0.0229358974        1.7613774084
  C         0.5513399673        1.3816110457        0.1111225010
  C         0.2921219293        0.8884052301       -1.1615594240
  C        -2.1643491318       -0.9405351610       -0.6682616369
  N         2.3814236645        0.1438838889       -0.5356662898
  C         1.4662756496        0.1656296274       -1.6471395169
  O         1.6739577326       -0.3245623563       -2.7449190266
  C         1.9048194582        1.0048673323        0.5135471573
  O         2.5425305659        1.3268623167        1.5043618757
  C         3.7779887797       -0.0802121423       -0.7229342598
      24
 i =       3, E =     -144.1575606890
  O        -2.4341203006        1.9481504046       -0.3045244588
  O        -4.3372066981        0.2689774033        0.7222445943
  S        -2.7390606145        0.4887188311        0.3288115600
  H         0.0606141242        2.1513068014        0.6397226288
  H        -0.4462688773        1.1832706960       -1.8558587067
  H         4.2106840465       -0.2934032345        0.2521235936
  H         3.8816555080       -0.9221887566       -1.4022717122
  H         4.2702579040        0.7937199487       -1.1503386972
 Cl        -1.5463966016       -3.4297484882       -0.0939023943
 Cl        -0.9712208571       -2.2721901983        2.8219765314
 Cl        -1.5328046147        0.9454317458        3.0955286361
 Cl        -2.5783084917       -1.1669301959       -2.2296716634
  C        -1.7609572672       -1.8283633273        0.2576692942
  C        -1.4994227614       -1.2978005232        1.5944262396
  C        -1.6924922729        0.0153469799        1.7670098198
  C         0.5482869823        1.3744787677        0.0818149550
  C         0.3007315815        0.9023656887       -1.1358016197
  C        -2.1668618643       -0.9493151622       -0.6664186872
  N         2.3829772338        0.1387054040       -0.5340489457
  C         1.4693250990        0.1584475751       -1.6590307753
  O         1.6740611204       -0.3222020031       -2.7384405906
  C         1.9130029519        1.0070168465        0.5258660289
  O         2.5392437776        1.3242638014        1.4977067079
  C         3.7846473592       -0.0806116159       -0.7241699875
      24
 i =       4, E =     -144.1636883482
  O        -2.4305342876        1.9712000384       -0.3143097790
  O        -4.3525075864        0.2673471634        0.7258799434
  S        -2.7477716351        0.5023144663        0.3250967960
  H         0.0511431084        2.1526193698        0.6433802552
  H        -0.4558146341        1.1829480555       -1.8554652862
  H         4.2157970775       -0.2957095904        0.2538614282
  H         3.8864350508       -0.9257542451       -1.4040347681
  H         4.2748154577        0.7970062406       -1.1527171063
 Cl        -1.5435119389       -3.4376259311       -0.0928795599
 Cl        -0.9678140785       -2.2790342247        2.8255476940
 Cl        -1.5309131013        0.9480624633        3.0980389816
 Cl        -2.5776019739       -1.1670880764       -2.2337560758
  C        -1.7548633382       -1.8335499743        0.2581851027
  C        -1.4933276673       -1.3027876059        1.5953287853
  C        -1.6967454126        0.0089418050        1.7744966353
  C         0.5499817008        1.3886157514        0.0871236669
  C         0.2993598942        0.9090517038       -1.1487419927
  C        -2.1725190629       -0.9580261148       -0.6656223090
  N         2.3875061475        0.1303025511       -0.5316995191
  C         1.4690685692        0.1604061304       -1.6495554489
  O         1.6766976529       -0.3273805821       -2.7481144541
  C         1.9083970483        1.0021641549        0.5175292665
  O         2.5454520325        1.3266438402        1.5071757559
  C         3.7919565660       -0.0814352946       -0.7254603611
      24
 i =       5, E =     -144.1670415660
  O        -2.4290399299        1.9819355672       -0.3188360312
  O        -4.3589109642        0.2669909439        0.7272780047
  S        -2.7532268433        0.5096028235        0.3232889223
  H         0.0452513817        2.1543136230        0.6462376614
  H        -0.4620764748        1.1830181863       -1.8562239912
  H         4.2187892808       -0.2969444408        0.2543317291
  H         3.8893984771       -0.9274197698       -1.4047594892
  H         4.2772632901        0.7983294238       -1.1538235092
 Cl        -1.5416250470       -3.4420768760       -0.0922069671
 Cl        -0.9656862616       -2.2829976476        2.8273995543
 Cl        -1.5298884520        0.9492021602        3.0992741595
 Cl        -2.5771377310       -1.1673155754       -2.2357109044
  C        -1.7519798072       -1.8358239245        0.2580729845
  C        -1.4903283805       -1.3048557420        1.5958907152
  C        -1.6998680047        0.0055216587        1.7773039977
  C         0.5497489562        1.3918544532        0.0800216923
  C         0.3013512721        0.9160739004       -1.1458498020
  C        -2.1759229873       -0.9618192483       -0.6640875828
  N         2.3885175520        0.1258822780       -0.5302415358
  C         1.4715557561        0.1554088824       -1.6586375736
  O         1.6758402888       -0.3247982066       -2.7407583569
  C         1.9146482292        1.0042371985        0.5266009459
  O         2.5411076970        1.3238091787        1.5003038657
  C         3.7960346099       -0.0820269027       -0.7261338810
      24
 i =       6, E =     -144.1704176765
  O        -2.4271802977        1.9970396622       -0.3251513070
  O        -4.3677358402        0.2667782918        0.7291066399
  S        -2.7614938001        0.5203923406        0.3206794908
  H         0.0371270318        2.1551786920        0.6492021005
  H        -0.4701743351        1.1826551484       -1.8556790243
  H         4.2236101235       -0.2989315946        0.2547139075
  H         3.8942743747       -0.9298185856       -1.4056596150
  H         4.2810285747        0.7999041079       -1.1553914731
 Cl        -1.5384715372       -3.4487211292       -0.0910900935
 Cl        -0.9622277626       -2.2890532342        2.8299889487
 Cl        -1.5283617234        0.9505898625        3.1008538750
 Cl        -2.5763081320       -1.1676920520       -2.2382102990
  C        -1.7477773435       -1.8391289088        0.2581212725
  C        -1.4860390987       -1.3079302828        1.5965793778
  C        -1.7051559164        0.0008658698        1.7809889060
  C         0.5524109303        1.4006622802        0.0784833854
  C         0.3035842754        0.9232150309       -1.1511617075
  C        -2.1815027840       -0.9667661940       -0.6616636804
  N         2.3905183777        0.1189804757       -0.5279837797
  C         1.4709361988        0.1585639005       -1.6502362049
  O         1.6777210568       -0.3289900825       -2.7473354042
  C         1.9101487468        1.0011459935        0.5186298326
  O         2.5453982335        1.3249589600        1.5072013433
  C         3.8007985260       -0.0827869663       -0.7268938046
      24
 i =       7, E =     -144.1721128706
  O        -2.4266497623        2.0024044348       -0.3273630615
  O        -4.3708379652        0.2669652860        0.7296549610
  S        -2.7646862165        0.5243834400        0.3197618976
  H         0.0339600949        2.1553634239        0.6503129388
  H        -0.4732925651        1.1824306279       -1.8553502985
  H         4.2256621431       -0.2996955448        0.2546512075
  H         3.8964080141       -0.9306241199       -1.4059323553
  H         4.2824832985        0.8003207137       -1.1559348332
 Cl        -1.5370641478       -3.4512773050       -0.0905672802
 Cl        -0.9607525171       -2.2914605433        2.8308470715
 Cl        -1.5277975059        0.9509081458        3.1012964885
 Cl        -2.5759276760       -1.1678798631       -2.2389189619
  C        -1.7463287009       -1.8402606078        0.2581260831
  C        -1.4845430030       -1.3090274170        1.5968483852
  C        -1.7075533609       -0.0008168106        1.7821346875
  C         0.5527028101        1.4040588464        0.0765792913
  C         0.3041980810        0.9269084474       -1.1521093988
  C        -2.1838975686       -0.9684216176       -0.6605117394
  N         2.3909871299        0.1162251978       -0.5270359359
  C         1.4725394057        0.1559680354       -1.6555369118
  O         1.6770363705       -0.3273811217       -2.7424651381
  C         1.9138695772        1.0025586656        0.5236132147
  O         2.5425121126        1.3230560988        1.5028772102
  C         3.8026761432       -0.0831513191       -0.7271668136
      24
 i =       8, E =     -144.1809095195
  O        -2.4205655515        2.0733677024       -0.3564312474
  O        -4.4121511159        0.2709656427        0.7363894538
  S        -2.8082085153        0.5780792073        0.3075469050
  H        -0.0096511090        2.1565982319        0.6642983455
  H        -0.5156780398        1.1792358402       -1.8492403874
  H         4.2552357998       -0.3103463970        0.2526711980
  H         3.9274280385       -0.9412697713       -1.4093101760
  H         4.3027481159        0.8049519750       -1.1630690021
 Cl        -1.5167210927       -3.4857216165       -0.0829143618
 Cl        -0.9397608823       -2.3245668775        2.8416039679
 Cl        -1.5202776884        0.9541138175        3.1064353815
 Cl        -2.5704349753       -1.1706531902       -2.2471599595
  C        -1.7274631582       -1.8553658251        0.2584220074
  C        -1.4651951313       -1.3233227766        1.6003887668
  C        -1.7418271905       -0.0236722293        1.7967275395
  C         0.5658901924        1.4503470624        0.0552100083
  C         0.3194919150        0.9731925632       -1.1709612616
  C        -2.2178270881       -0.9898341701       -0.6438819584
  N         2.3979110372        0.0781543093       -0.5137506875
  C         1.4773360671        0.1614340260       -1.6444331017
  O         1.6808552475       -0.3369697331       -2.7446504969
  C         1.9121087135        0.9992404975        0.5108653572
  O         2.5452662587        1.3176187977        1.5096471210
  C         3.8252478304       -0.0878243436       -0.7305331131
      24
 i =       9, E =     -144.1823162722
  O        -2.4214038593        2.0725519191       -0.3559412701
  O        -4.4120365833        0.2725499337        0.7357664246
  S        -2.8090127462        0.5782195732        0.3076474742
  H        -0.0097885924        2.1550981367        0.6633268021
  H        -0.5152742451        1.1787721345       -1.8476340005
  H         4.2571242377       -0.3103607886        0.2515222360
  H         3.9296090838       -0.9407713166       -1.4092316418
  H         4.3032870037        0.8043608004       -1.1630301063
 Cl        -1.5155279791       -3.4859060231       -0.0822427603
 Cl        -0.9388335887       -2.3253453742        2.8408998294
 Cl        -1.5204676586        0.9530223711        3.1056777925
 Cl        -2.5701884133       -1.1709394366       -2.2458454675
  C        -1.7283549085       -1.8551769774        0.2585508675
  C        -1.4661122083       -1.3230787796        1.6004652069
  C        -1.7435102790       -0.0241186553        1.7963616338
  C         0.5661267419        1.4535382433        0.0563863307
  C         0.3187930962        0.9748441312       -1.1739509899
  C        -2.2192465701       -0.9896877883       -0.6428488038
  N         2.3976257898        0.0774323048       -0.5134066043
  C         1.4797564585        0.1584880882       -1.6530693979
  O         1.6794775447       -0.3336798381       -2.7364767858
  C         1.9177962233        1.0024480498        0.5180296644
  O         2.5406194863        1.3149430337        1.5024617341
  C         3.8252256192       -0.0879688433       -0.7304902113
      24
 i =      10, E =     -144.1836065257
  O        -2.4270034542        2.0679875909       -0.3530127650
  O        -4.4128108348        0.2834124524        0.7318007038
  S        -2.8139327822        0.5786485353        0.3084182760
  H        -0.0131492736        2.1477321539        0.6589609441
  H        -0.5159852242        1.1766272291       -1.8393043627
  H         4.2703339560       -0.3106316629        0.2439942240
  H         3.9447050106       -0.9377462703       -1.4089074601
  H         4.3070694227        0.8004801828       -1.1628367363
 Cl        -1.5072448134       -3.4867187534       -0.0775833430
 Cl        -0.9324560523       -2.3303977976        2.8357162743
 Cl        -1.5218168666        0.9457949340        3.1007913964
 Cl        -2.5686923578       -1.1729138735       -2.2372649494
  C        -1.7341299805       -1.8548616686        0.2602685333
  C        -1.4721840409       -1.3229923290        1.6008661652
  C        -1.7550464649       -0.0262783430        1.7944368340
  C         0.5727973675        1.4654045483        0.0498699857
  C         0.3251344898        0.9874784162       -1.1796014692
  C        -2.2291488839       -0.9885734639       -0.6364477375
  N         2.3964324075        0.0724443602       -0.5111109437
  C         1.4821178193        0.1706045986       -1.6459765529
  O         1.6810921171       -0.3374208436       -2.7374339637
  C         1.9158637398        1.0068909850        0.5050841835
  O         2.5426593989        1.3129616493        1.5059992072
  C         3.8243162486       -0.0885108252       -0.7302752321
      24
 i =      11, E =     -144.1843915114
  O        -2.4274653995        2.0683124970       -0.3530500350
  O        -4.4143389330        0.2848996452        0.7315260397
  S        -2.8141422198        0.5782521852        0.3086204566
  H        -0.0139643581        2.1474845357        0.6589367075
  H        -0.5167287415        1.1765937734       -1.8389264553
  H         4.2722031029       -0.3105987849        0.2433005723
  H         3.9466888102       -0.9374950761       -1.4091592569
  H         4.3075083075        0.8004056177       -1.1629666876
 Cl        -1.5061742604       -3.4865236372       -0.0769112344
 Cl        -0.9317227673       -2.3308199136        2.8347374045
 Cl        -1.5220848328        0.9450950380        3.1004775322
 Cl        -2.5687261205       -1.1732256650       -2.2365595461
  C        -1.7348883908       -1.8554034563        0.2608201658
  C        -1.4729577832       -1.3238160705        1.6011387112
  C        -1.7563987895       -0.0265322996        1.7946776419
  C         0.5733666073        1.4670113961        0.0486601257
  C         0.3260199503        0.9893315712       -1.1800065846
  C        -2.2304202724       -0.9887752932       -0.6358725051
  N         2.3964384323        0.0720807649       -0.5108695778
  C         1.4840835948        0.1677596799       -1.6538069753
  O         1.6801715377       -0.3345871755       -2.7309543858
  C         1.9209180026        1.0095743240        0.5116774709
  O         2.5390944104        1.3109889791        1.5001102948
  C         3.8251206582       -0.0885287176       -0.7304597406
      24
 i =      12, E =     -144.1846638191
  O        -2.4280717466        2.0685894799       -0.3530396024
  O        -4.4161164273        0.2868277349        0.7311318071
  S        -2.8146141545        0.5778734292        0.3088672356
  H        -0.0149810603        2.1471547386        0.6588246374
  H        -0.5175892077        1.1765805221       -1.8383626116
  H         4.2745914197       -0.3105627095        0.2424215046
  H         3.9492177185       -0.9371891851       -1.4094846065
  H         4.3081056110        0.8003560794       -1.1631546658
 Cl        -1.5048117020       -3.4863354903       -0.0760855307
 Cl        -0.9307655512       -2.3313967988        2.8335646367
 Cl        -1.5224247285        0.9442519651        3.1001466516
 Cl        -2.5687928704       -1.1736280719       -2.2357184637
  C        -1.7359287314       -1.8559609873        0.2613730330
  C        -1.4740220362       -1.3245024429        1.6015208539
  C        -1.7580329952       -0.0271919326        1.7949041138
  C         0.5749052948        1.4687825306        0.0474767494
  C         0.3277079871        0.9912024582       -1.1808700566
  C        -2.2319386368       -0.9891600628       -0.6349985470
  N         2.3967872321        0.0715805707       -0.5106534360
  C         1.4844432166        0.1696576002       -1.6524509863
  O         1.6807833003       -0.3354906038       -2.7322918764
  C         1.9205824500        1.0100317713        0.5094352565
  O         2.5401828177        1.3111601063        1.5015501862
  C         3.8258081261       -0.0885112060       -0.7306418211
      24
 i =      13, E =     -144.1866755439
  O        -2.4352966777        2.0701906223       -0.3522336399
  O        -4.4354200632        0.3100398388        0.7259910676
  S        -2.8228094670        0.5752557841        0.3115594057
  H        -0.0253742641        2.1423688561        0.6563411444
  H        -0.5254430912        1.1762374464       -1.8306718728
  H         4.3027147431       -0.3098867353        0.2320542375
  H         3.9788989723       -0.9334093067       -1.4134943422
  H         4.3151644043        0.8005118660       -1.1656551412
 Cl        -1.4886095426       -3.4848296971       -0.0665294992
 Cl        -0.9191524428       -2.3387280159        2.8203864184
 Cl        -1.5265844180        0.9346572005        3.0968703339
 Cl        -2.5699261997       -1.1784979861       -2.2262154987
  C        -1.7487444626       -1.8619882958        0.2674286534
  C        -1.4871372361       -1.3313598415        1.6060950927
  C        -1.7770535201       -0.0363022011        1.7975960614
  C         0.5899675879        1.4927826455        0.0370167173
  C         0.3424063797        1.0140565885       -1.1945836262
  C        -2.2495932159       -0.9945695543       -0.6243322947
  N         2.4015373862        0.0662794294       -0.5087613617
  C         1.4954228717        0.1778720790       -1.6637632719
  O         1.6838585533       -0.3349585185       -2.7251506736
  C         1.9339863919        1.0222246123        0.5090016047
  O         2.5395823498        1.3069888335        1.4967480555
  C         3.8346114792       -0.0885090646       -0.7327736705
      24
 i =      14, E =     -144.1874869559
  O        -2.4356479754        2.0695681414       -0.3519098784
  O        -4.4357388882        0.3114431963        0.7255172331
  S        -2.8242261635        0.5756570477        0.3116816756
  H        -0.0254462119        2.1422923459        0.6560510406
  H        -0.5253254118        1.1763892663       -1.8303854421
  H         4.3039875288       -0.3097049402        0.2316024146
  H         3.9801739920       -0.9331378218       -1.4137870227
  H         4.3155106852        0.8009016063       -1.1659136202
 Cl        -1.4878355526       -3.4851228142       -0.0662012500
 Cl        -0.9184793154       -2.3393156159        2.8201468928
 Cl        -1.5268803824        0.9343793985        3.0970435718
 Cl        -2.5701888256       -1.1787918477       -2.2260105171
  C        -1.7494099059       -1.8623315754        0.2678549687
  C        -1.4878594149       -1.3318813756        1.6061907420
  C        -1.7779573199       -0.0364527908        1.7979808862
  C         0.5907001007        1.4929492181        0.0352196044
  C         0.3436772644        1.0152700301       -1.1936738413
  C        -2.2505082839       -0.9949127638       -0.6241601733
  N         2.4022652405        0.0664667930       -0.5090019143
  C         1.4946655889        0.1820875488       -1.6564524844
  O         1.6854172351       -0.3381589470       -2.7318331287
  C         1.9299958786        1.0206876408        0.5013524533
  O         2.5438327064        1.3088270095        1.5031047563
  C         3.8352020530       -0.0884365060       -0.7329208370
      24
 i =      15, E =     -144.1876210721
  O        -2.4364937145        2.0682475721       -0.3511999228
  O        -4.4371445196        0.3150531131        0.7244110421
  S        -2.8274044302        0.5763630290        0.3120342777
  H        -0.0252796335        2.1418302505        0.6550510064
  H        -0.5245848344        1.1767033376       -1.8294277223
  H         4.3072490324       -0.3092281161        0.2304777057
  H         3.9834238239       -0.9324433649       -1.4145587665
  H         4.3163350063        0.8018683962       -1.1665540444
 Cl        -1.4857996913       -3.4858295972       -0.0653453000
 Cl        -0.9167307222       -2.3407842292        2.8194451156
 Cl        -1.5276634708        0.9336587498        3.0975055332
 Cl        -2.5708884962       -1.1795649859       -2.2254885946
  C        -1.7512726927       -1.8631226342        0.2686554535
  C        -1.4897931338       -1.3327985603        1.6066862963
  C        -1.7802754654       -0.0372835840        1.7988997779
  C         0.5915404892        1.4955225259        0.0338271003
  C         0.3446473102        1.0179872809       -1.1946171666
  C        -2.2528415692       -0.9959562414       -0.6234886313
  N         2.4037430607        0.0671143396       -0.5095854327
  C         1.4972079680        0.1811016927       -1.6610457507
  O         1.6856901872       -0.3364398250       -2.7287431967
  C         1.9340209304        1.0227332010        0.5044414398
  O         2.5425924911        1.3080419775        1.4998000994
  C         3.8372433204       -0.0882560178       -0.7334010660
      24
 i =      16, E =     -144.1880550376
  O        -2.4382303450        2.0659976680       -0.3499229173
  O        -4.4412844492        0.3226734432        0.7223019245
  S        -2.8330892949        0.5771770219        0.3128426079
  H        -0.0252414369        2.1412789503        0.6531959292
  H        -0.5234791674        1.1775620989       -1.8277726879
  H         4.3143039627       -0.3082133949        0.2280997692
  H         3.9904387578       -0.9309826086       -1.4162400517
  H         4.3181849431        0.8038643990       -1.1679072230
 Cl        -1.4814402587       -3.4872005967       -0.0634973643
 Cl        -0.9130334267       -2.3437964537        2.8177931382
 Cl        -1.5293810530        0.9320870895        3.0985083187
 Cl        -2.5724360786       -1.1812474605       -2.2243999943
  C        -1.7553458749       -1.8648162026        0.2701480449
  C        -1.4939526465       -1.3344810312        1.6079875209
  C        -1.7853148593       -0.0393655880        1.8008136037
  C         0.5951898111        1.4999491065        0.0308051290
  C         0.3486544307        1.0227709448       -1.1965064452
  C        -2.2579029059       -0.9982530366       -0.6218357373
  N         2.4073270161        0.0684388783       -0.5108134762
  C         1.4994728838        0.1866927856       -1.6563704111
  O         1.6885452107       -0.3387874011       -2.7344413201
  C         1.9334781396        1.0236562052        0.4968458192
  O         2.5473026262        1.3097055442        1.5046140112
  C         3.8412126834       -0.0875270608       -0.7345212237
      24
 i =      17, E =     -144.1883161825
  O        -2.4384495126        2.0660357635       -0.3498867565
  O        -4.4429228937        0.3240517110        0.7220920891
  S        -2.8333786453        0.5767294699        0.3130692798
  H        -0.0252235928        2.1413506030        0.6529321904
  H        -0.5233351209        1.1777996433       -1.8276528709
  H         4.3156176883       -0.3079987815        0.2276618805
  H         3.9917351403       -0.9306913136       -1.4165671369
  H         4.3185714915        0.8042104938       -1.1681551237
 Cl        -1.4806282232       -3.4872832247       -0.0631297742
 Cl        -0.9123863644       -2.3442298647        2.8173358975
 Cl        -1.5297559918        0.9317619268        3.0986953395
 Cl        -2.5727741257       -1.1815756498       -2.2241682457
  C        -1.7561231592       -1.8652273766        0.2703760491
  C        -1.4947220193       -1.3347640605        1.6083531213
  C        -1.7863477549       -0.0398513408        1.8012066431
  C         0.5959511258        1.5009196384        0.0308292031
  C         0.3492691715        1.0233735456       -1.1974061002
  C        -2.2589571049       -0.9987028059       -0.6214813401
  N         2.4078999651        0.0687895815       -0.5110202858
  C         1.5008855738        0.1849447573       -1.6612229548
  O         1.6882119421       -0.3367681234       -2.7305770636
  C         1.9367719078        1.0253504350        0.5009328056
  O         2.5452805864        1.3087095095        1.5007314643
  C         3.8420710373       -0.0872251884       -0.7348273857
      24
 i =      18, E =     -144.1884004888
  O        -2.4389430575        2.0659018449       -0.3497197843
  O        -4.4459148232        0.3269490453        0.7215641638
  S        -2.8343438028        0.5759703381        0.3135419789
  H        -0.0252557895        2.1415683872        0.6524156390
  H        -0.5231208745        1.1783320852       -1.8274487444
  H         4.3183100186       -0.3075519386        0.2267193278
  H         3.9944056422       -0.9300705986       -1.4172174064
  H         4.3194419442        0.8049631286       -1.1686932817
 Cl        -1.4789611012       -3.4874622362       -0.0623881137
 Cl        -0.9110539656       -2.3451130788        2.8164113327
 Cl        -1.5305378219        0.9310939346        3.0990865233
 Cl        -2.5734853908       -1.1822516852       -2.2237092478
  C        -1.7576954584       -1.8660274590        0.2709281385
  C        -1.4962848714       -1.3354885933        1.6089990481
  C        -1.7884783602       -0.0407484314        1.8020206986