      24
 i =       0, E =     -143.9839297100
  O        -1.5528601361        0.8853914391       -0.0634947890
  O        -3.8432762791        0.8019788689        0.3867597686
  S        -2.6163272880        0.2150050801        0.4007959805
  H         1.0195133988        2.0283158210        0.5366453341
  H         0.4693507540        1.1077047807       -1.9502401653
  H         5.5699608691        1.3430391922       -0.6778820254
  H         5.2219773154        0.7595925062       -2.3563688711
  H         5.1671903526        2.4761791113       -1.9656194879
 Cl        -2.8171204475       -3.9107283886        0.3308471399
 Cl        -2.2289222568       -2.7307952245        3.2742012548
 Cl        -1.9714707251        0.5755987123        3.3138507702
 Cl        -3.0150567089       -1.5500596934       -1.9933116067
  C        -2.6407530296       -2.2789741923        0.6046091940
  C        -2.3805536107       -1.7409341336        1.9435693904
  C        -2.2623494258       -0.4039883552        1.9960931705
  C         1.6443404499        1.7042035716       -0.2151737619
  C         1.3689815232        1.2425692134       -1.4590655547
  C        -2.7137223722       -1.3523834480       -0.3638195590
  N         3.5968811394        1.3472732122       -1.2497398355
  C         2.6164412635        1.0294697171       -2.1679615734
  O         2.7876081463        0.6534942509       -3.3136293922
  C         3.0839463781        1.8157061080       -0.0583939926
  O         3.7299959007        2.2269862141        0.8905586930
  C         4.9660382183        1.4879447544       -1.5817315977
      24
 i =       1, E =     -144.1369751411
  O        -1.3847594800        1.0051800449       -0.1425721404
  O        -4.0230993981        0.8921869076        0.3836060596
  S        -2.6154575825        0.1175658463        0.4401412577
  H         0.9941226981        2.0355918982        0.5583067177
  H         0.4389924687        1.1033720959       -1.9592141911
  H         5.5689655562        1.3362290856       -0.6766209246
  H         5.2216735674        0.7528934447       -2.3533157132
  H         5.1678488866        2.4803009024       -1.9671144777
 Cl        -2.8130664261       -3.9137332606        0.3315649665
 Cl        -2.2249624318       -2.7341376163        3.2748148811
 Cl        -1.9705610932        0.5727380248        3.3081867147
 Cl        -3.0118577918       -1.5487577871       -1.9887561999
  C        -2.6367469974       -2.2827436742        0.6019648419
  C        -2.3755307303       -1.7409651798        1.9453131037
  C        -2.2533200305       -0.4325666547        2.0546792944
  C         1.6243089778        1.6942303416       -0.2408581126
  C         1.3596401506        1.2537885586       -1.4276728780
  C        -2.7200589651       -1.4125124697       -0.3860134339
  N         3.6393027841        1.3344591989       -1.2547219774
  C         2.5968593604        1.0102822733       -2.2137921362
  O         2.7877925605        0.6513256075       -3.3093439301
  C         3.0839997975        1.8331554752       -0.0062324610
  O         3.7259134406        2.2221896211        0.8879624440
  C         4.9905908062        1.4800273198       -1.5845148423
      24
 i =       2, E =     -144.1543771416
  O        -1.3683759396        1.0199917614       -0.1514775637
  O        -4.0500497951        0.9068909485        0.3828856183
  S        -2.6100789802        0.1520620458        0.4253877431
  H         0.9868411521        2.0353882247        0.5608666821
  H         0.4315150893        1.1026097581       -1.9581145118
  H         5.5730284645        1.3336575425       -0.6751648286
  H         5.2252825090        0.7491308993       -2.3547840788
  H         5.1707487385        2.4831253683       -1.9688112133
 Cl        -2.8119348555       -3.9184638864        0.3338725351
 Cl        -2.2240161503       -2.7392240505        3.2762111289
 Cl        -1.9693263594        0.5733019739        3.3105450205
 Cl        -3.0114550738       -1.5502020758       -1.9914924094
  C        -2.6346160849       -2.3022861829        0.6113527185
  C        -2.3740773261       -1.7620024707        1.9507235959
  C        -2.2509725590       -0.4318125170        2.0715125753
  C         1.6236563713        1.7079323794       -0.2079490470
  C         1.3465590543        1.2439446232       -1.4582073190
  C        -2.7231406046       -1.4236563449       -0.3976650820
  N         3.6284753275        1.3281808287       -1.2498444345
  C         2.5952969101        1.0237154031       -2.1728208659
  O         2.7931152301        0.6373788134       -3.3486787751
  C         3.0642969757        1.8171516094       -0.0433352241
  O         3.7472796620        2.2360687623        0.9226233826
  C         5.0061846462        1.4823270105       -1.5887300325
      24
 i =       3, E =     -144.1689347643
  O        -1.3553305932        1.0315478158       -0.1584536383
  O        -4.0670520487        0.9162896274        0.3824220240
  S        -2.6095346604        0.1715886079        0.4174462397
  H         0.9781485221        2.0372613666        0.5677173831
  H         0.4213021808        1.1010337652       -1.9605541750
  H         5.5765683843        1.3320102334       -0.6741824581
  H         5.2284189290        0.7465604878       -2.3561443697
  H         5.1731526047        2.4858363743       -1.9703506540
 Cl        -2.8114121443       -3.9244240579        0.3355906830
 Cl        -2.2232734369       -2.7447470440        3.2789962095
 Cl        -1.9682129686        0.5740993751        3.3137628534
 Cl        -3.0114890662       -1.5519521018       -1.9947157588
  C        -2.6337930437       -2.3069437745        0.6103373708
  C        -2.3724175813       -1.7643550919        1.9537847270
  C        -2.2514427149       -0.4414799363        2.0765796259
  C         1.6149217846        1.7039059254       -0.2211954393
  C         1.3448834365        1.2503606160       -1.4434348729
  C        -2.7238744379       -1.4338160263       -0.3943053253
  N         3.6328637767        1.3241855225       -1.2489493923
  C         2.6016846313        1.0112410363       -2.2094941841
  O         2.7887334490        0.6451963755       -3.3233898133
  C         3.0861758316        1.8298105270       -0.0129655719
  O         3.7314411735        2.2265605055        0.9019794802
  C         5.0101867580        1.4826793902       -1.5898199701
      24
 i =       4, E =     -144.1743563654
  O        -1.3375216634        1.0476027461       -0.1680867395
  O        -4.0888675604        0.9286980054        0.3817112191
  S        -2.6103345531        0.1973075823        0.4072354743
  H         0.9686684975        2.0378495944        0.5727725858
  H         0.4115047635        1.0997419910       -1.9605862269
  H         5.5823003138        1.3299530294       -0.6737241409
  H         5.2337794868        0.7436041513       -2.3578582086
  H         5.1772693997        2.4893770915       -1.9725820365
 Cl        -2.8107528064       -3.9340583245        0.3384755901
 Cl        -2.2223131131       -2.7535408621        3.2831902406
 Cl        -1.9668025920        0.5742583535        3.3179483671
 Cl        -3.0113897872       -1.5549469323       -1.9982194954
  C        -2.6321344062       -2.3153745955        0.6135831188
  C        -2.3708489061       -1.7729901655        1.9565009057
  C        -2.2522008715       -0.4481736600        2.0816995851
  C         1.6141015883        1.7082252475       -0.2153422892
  C         1.3418882452        1.2501973994       -1.4497225095
  C        -2.7252898535       -1.4417496920       -0.3927725743
  N         3.6366277110        1.3182140119       -1.2474214400
  C         2.5966139452        1.0207950210       -2.1808055295
  O         2.7928940661        0.6357505279       -3.3499422602
  C         3.0689218850        1.8197343302       -0.0364171490
  O         3.7452458619        2.2354706855        0.9244764824
  C         5.0151380855        1.4833095125       -1.5914209799
      24
 i =       5, E =     -144.1818399268
  O        -1.3291986898        1.0555211810       -0.1727126125
  O        -4.0985269980        0.9345583388        0.3813017425
  S        -2.6115744448        0.2096419886        0.4025223742
  H         0.9639453685        2.0380223119        0.5752936988
  H         0.4066605674        1.0990123102       -1.9605488480
  H         5.5854900714        1.3290578037       -0.6740383056
  H         5.2369177093        0.7424925215       -2.3585736638
  H         5.1796190379        2.4909184309       -1.9737001614
 Cl        -2.8103938871       -3.9397000447        0.3403153613
 Cl        -2.2218230928       -2.7588106392        3.2856098519
 Cl        -1.9661708032        0.5735438065        3.3199417758
 Cl        -3.0112500875       -1.5569182611       -1.9993993878
  C        -2.6313880703       -2.3188782970        0.6146071175
  C        -2.3700375429       -1.7763002368        1.9577623777
  C        -2.2530898400       -0.4511015030        2.0823333361
  C         1.6088335304        1.7088772637       -0.2169196737
  C         1.3378675781        1.2524518347       -1.4470578139
  C        -2.7259425683       -1.4441528411       -0.3908585229
  N         3.6387253728        1.3148051951       -1.2465675836
  C         2.6017460371        1.0115049506       -2.2086149041
  O         2.7890300143        0.6426710533       -3.3281784123
  C         3.0849884840        1.8293407213       -0.0137628542
  O         3.7319322281        2.2276805815        0.9071915578
  C         5.0184236923        1.4836974971       -1.5924157999
      24
 i =       6, E =     -144.1840870536
  O        -1.3179405459        1.0668446898       -0.1791759585
  O        -4.1118772533        0.9430325455        0.3806333280
  S        -2.6134520409        0.2272649801        0.3957585429
  H         0.9568643776        2.0379491944        0.5783636308
  H         0.3996911320        1.0981059857       -1.9598509070
  H         5.5907515559        1.3278638142       -0.6750236996
  H         5.2422211241        0.7411641719       -2.3595711225
  H         5.1835800573        2.4930442043       -1.9753938636
 Cl        -2.8097838776       -3.9481067421        0.3433272811
 Cl        -2.2211097098       -2.7668956838        3.2890673917
 Cl        -1.9653312899        0.5718435689        3.3226573246
 Cl        -3.0109456699       -1.5601469109       -2.0005123427
  C        -2.6303277312       -2.3239975618        0.6161863280
  C        -2.3689138459       -1.7810312800        1.9594440179
  C        -2.2546715551       -0.4546732623        2.0823175850
  C         1.6082346210        1.7111484004       -0.2168812581
  C         1.3373482400        1.2542910306       -1.4482102907
  C        -2.7269786888       -1.4463768771       -0.3878348232
  N         3.6410757883        1.3095640789       -1.2451400988
  C         2.5975520142        1.0191410902       -2.1863789403
  O         2.7920227217        0.6361445480       -3.3467148713
  C         3.0713848044        1.8218743323       -0.0316670801
  O         3.7413265285        2.2339389222        0.9228871524
  C         5.0218018129        1.4842086757       -1.5936503662
      24
 i =       7, E =     -144.1880696174
  O        -1.3142469833        1.0709892293       -0.1814536657
  O        -4.1164170709        0.9462072476        0.3803062915
  S        -2.6142429676        0.2336094621        0.3933303002
  H         0.9545546103        2.0376854438        0.5790580995
  H         0.3976033179        1.0978223773       -1.9592902613
  H         5.5928975921        1.3274934293       -0.6756452711
  H         5.2444306586        0.7408593284       -2.3599006793
  H         5.1851737785        2.4937128037       -1.9760367158
 Cl        -2.8094957639       -3.9513418474        0.3446612007
 Cl        -2.2208497480       -2.7701376557        3.2902652311
 Cl        -1.9650761143        0.5707668197        3.3235247119
 Cl        -3.0107619133       -1.5615821863       -2.0004812658
  C        -2.6299702252       -2.3256804271        0.6167211927
  C        -2.3685232297       -1.7826295892        1.9599652693
  C        -2.2554277136       -0.4557440647        2.0818864670
  C         1.6055995446        1.7123686540       -0.2161628725
  C         1.3347970453        1.2551527477       -1.4484590332
  C        -2.7274203673       -1.4466972140       -0.3865469193
  N         3.6421943222        1.3074388639       -1.2444738818
  C         2.6002182603        1.0143142058       -2.2010356023
  O         2.7898006300        0.6400926703       -3.3344715382
  C         3.0797320355        1.8268935623       -0.0199727807
  O         3.7338650741        2.2296801343        0.9133401416
  C         5.0234202790        1.4844082244       -1.5941648556
      24
 i =       8, E =     -144.1950252669
  O        -1.2674797469        1.1268267248       -0.2115300314
  O        -4.1755957356        0.9895196886        0.3754152700
  S        -2.6251786940        0.3181829838        0.3611087867
  H         0.9201730124        2.0343883421        0.5895722630
  H         0.3663030351        1.0939392848       -1.9515855372
  H         5.6241507255        1.3227946112       -0.6857311321
  H         5.2767769965        0.7377324915       -2.3642551436
  H         5.2084270343        2.5022271932       -1.9850225323
 Cl        -2.8051534420       -3.9951727659        0.3637633579
 Cl        -2.2173200313       -2.8145504624        3.3053084026
 Cl        -1.9618962929        0.5540559168        3.3346994279
 Cl        -3.0079585650       -1.5822127866       -1.9981040688
  C        -2.6253004375       -2.3468581484        0.6234825504
  C        -2.3633940202       -1.8035823127        1.9670701901
  C        -2.2664745352       -0.4697010417        2.0737699578
  C         1.5924456680        1.7255669146       -0.2187813496
  C         1.3247658356        1.2687841392       -1.4498323565
  C        -2.7336543198       -1.4492726093       -0.3678576186
  N         3.6550037555        1.2775649699       -1.2353280021
  C         2.5962413435        1.0212234266       -2.1853375950
  O         2.7896035038        0.6363568356       -3.3414140263
  C         3.0674262293        1.8227387762       -0.0328230968
  O         3.7307512449        2.2316408837        0.9227747858
  C         5.0406314976        1.4869009598       -1.6002102172
      24
 i =       9, E =     -144.1971464574
  O        -1.2700312529        1.1271497158       -0.2111290354
  O        -4.1738792512        0.9902679424        0.3748955985
  S        -2.6256855475        0.3180965277        0.3612655303
  H         0.9204527091        2.0335891009        0.5880593738
  H         0.3673748177        1.0942283804       -1.9502560137
  H         5.6256756585        1.3231445905       -0.6870730926
  H         5.2785173252        0.7385813418       -2.3641880456
  H         5.2093850311        2.5017142746       -1.9851271452
 Cl        -2.8046827711       -3.9952891826        0.3649591655
 Cl        -2.2172747603       -2.8155418993        3.3045102041
 Cl        -1.9621872934        0.5517995357        3.3340572520
 Cl        -3.0076348266       -1.5834158485       -1.9961138805
  C        -2.6254379122       -2.3462928360        0.6235613391
  C        -2.3636253054       -1.8030376266        1.9666216167
  C        -2.2670811242       -0.4690651279        2.0727144936
  C         1.5907758923        1.7271723695       -0.2165311866
  C         1.3221441997        1.2688779991       -1.4517911148
  C        -2.7340559385       -1.4480165683       -0.3674595118
  N         3.6553537140        1.2764198531       -1.2349278739
  C         2.5987399083        1.0171043011       -2.1978075147
  O         2.7874831516        0.6402795447       -3.3301156635
  C         3.0746381665        1.8270642203       -0.0227549760
  O         3.7239860518        2.2279376817        0.9138419179
  C         5.0408379938        1.4867063304       -1.6003011381
      24
 i =      10, E =     -144.1982499845
  O        -1.2863706571        1.1303806393       -0.2089742013
  O        -4.1639479745        0.9963324633        0.3713111402
  S        -2.6288271513        0.3171504107        0.3625096040
  H         0.9188792401        2.0295226860        0.5812899058
  H         0.3698517391        1.0955343382       -1.9432518452
  H         5.6366370898        1.3254168327       -0.6959819945
  H         5.2908056083        0.7439908171       -2.3641278655
  H         5.2161336691        2.4984495033       -1.9859939200
 Cl        -2.8013359376       -3.9957355509        0.3731748529
 Cl        -2.2169671295       -2.8217183643        3.2982787057
 Cl        -1.9639937287        0.5370311521        3.3305163377
 Cl        -3.0055807909       -1.5917428106       -1.9834203970
  C        -2.6264997924       -2.3420668473        0.6235209740
  C        -2.3651006931       -1.8001217840        1.9646717820
  C        -2.2713414543       -0.4659390295        2.0653335556
  C         1.5886621950        1.7317141069       -0.2189352689
  C         1.3204190157        1.2743516909       -1.4524075665
  C        -2.7367299649       -1.4408790633       -0.3637819826
  N         3.6571306063        1.2683171656       -1.2316807202
  C         2.5968319775        1.0215453910       -2.1871931307
  O         2.7869337069        0.6403919407       -3.3327781956
  C         3.0672782072        1.8239997890       -0.0319502439
  O         3.7233531917        2.2302883204        0.9177719666
  C         5.0407603263        1.4857177717       -1.6005532994
      24
 i =      11, E =     -144.1986673167
  O        -1.2873305238        1.1319134156       -0.2093414499
  O        -4.1642546343        0.9979741450        0.3708173854
  S        -2.6292688054        0.3165874447        0.3628194204
  H         0.9179386402        2.0293628543        0.5811937051
  H         0.3691031676        1.0955782438       -1.9429094972
  H         5.6381304638        1.3255257945       -0.6966927471
  H         5.2922980607        0.7442644620       -2.3643812952
  H         5.2167439910        2.4981780776       -1.9861418011
 Cl        -2.8007105514       -3.9953149641        0.3742428445
 Cl        -2.2168174842       -2.8222219906        3.2971362243
 Cl        -1.9640645541        0.5356914885        3.3306818426
 Cl        -3.0054449409       -1.5928439506       -1.9826677933
  C        -2.6266260578       -2.3421014117        0.6237787086
  C        -2.3652888884       -1.8001666192        1.9644815186
  C        -2.2717785058       -0.4662716693        2.0650514809
  C         1.5882718880        1.7322528001       -0.2192357668
  C         1.3202837905        1.2749905566       -1.4525112072
  C        -2.7370507887       -1.4408376489       -0.3632498381
  N         3.6571232599        1.2669886813       -1.2312457698
  C         2.5980230984        1.0189704129       -2.1948433741
  O         2.7855430741        0.6427519602       -3.3259803933
  C         3.0721171305        1.8270686328       -0.0246386762
  O         3.7185383917        2.2277537221        0.9117079573
  C         5.0412540160        1.4856462337       -1.6006019142
      24
 i =      12, E =     -144.1988808948
  O        -1.2887246576        1.1337550117       -0.2097323409
  O        -4.1645031521        0.9999680863        0.3702015115
  S        -2.6298229595        0.3161664042        0.3630972181
  H         0.9167480131        2.0291382170        0.5809853136
  H         0.3682101645        1.0956773141       -1.9423889108
  H         5.6400376098        1.3256572979       -0.6975929007
  H         5.2941964671        0.7446241816       -2.3646797822
  H         5.2175280806        2.4978644175       -1.9863396648
 Cl        -2.7999200657       -3.9948856175        0.3755725111
 Cl        -2.2166113917       -2.8228944195        3.2957417132
 Cl        -1.9641444686        0.5340353334        3.3309392048
 Cl        -3.0052821368       -1.5942464978       -1.9817634981
  C        -2.6267879227       -2.3421503934        0.6240769782
  C        -2.3655196883       -1.8003486314        1.9643204508
  C        -2.2723263754       -0.4665779912        2.0646945741
  C         1.5886070923        1.7329191771       -0.2196907640
  C         1.3208112355        1.2757504144       -1.4527737096
  C        -2.7374648431       -1.4407588179       -0.3626237113
  N         3.6573564000        1.2653703960       -1.2305814293
  C         2.5975596682        1.0196215673       -2.1930231420
  O         2.7854257935        0.6424969449       -3.3270810886
  C         3.0706962010        1.8263887765       -0.0262578496
  O         3.7187744952        2.2284229519        0.9131486733
  C         5.0415300761        1.4854698122       -1.6006038462
      24
 i =      13, E =     -144.1998433985
  O        -1.3068914564        1.1545612724       -0.2136793010
  O        -4.1657796967        1.0224267718        0.3630579026
  S        -2.6370567020        0.3146534644        0.3651736603
  H         0.9044055596        2.0260400704        0.5766868147
  H         0.3603262194        1.0974620105       -1.9351999158
  H         5.6620962386        1.3271093633       -0.7080456865
  H         5.3160242882        0.7489078558       -2.3678680647
  H         5.2260918370        2.4942084698       -1.9885289282
 Cl        -2.7904866545       -3.9910406067        0.3910138300
 Cl        -2.2138507225       -2.8314937860        3.2801457809
 Cl        -1.9649943635        0.5148299461        3.3344272821
 Cl        -3.0034430710       -1.6108490233       -1.9715823609
  C        -2.6287036284       -2.3429962754        0.6273510748
  C        -2.3681422395       -1.8028213966        1.9628983736
  C        -2.2786062456       -0.4692267777        2.0612162487
  C         1.5875790429        1.7419602828       -0.2213198173
  C         1.3201895298        1.2838387826       -1.4577257765
  C        -2.7425145780       -1.4397482033       -0.3564028125
  N         3.6611147349        1.2462144993       -1.2230609055
  C         2.5979170406        1.0187491697       -2.1960927890
  O         2.7806503518        0.6460104008       -3.3205411316
  C         3.0723026355        1.8282297629       -0.0214181081
  O         3.7076880325        2.2278604736        0.9103391940
  C         5.0452380675        1.4825607493       -1.6006452976
      24
 i =      14, E =     -144.2003853890
  O        -1.3084695242        1.1552816884       -0.2136241225
  O        -4.1652406473        1.0231262240        0.3627684281
  S        -2.6376842775        0.3157561290        0.3648496716
  H         0.9040824610        2.0259671565        0.5762601420
  H         0.3603027184        1.0977012115       -1.9348648470
  H         5.6628632516        1.3270776024       -0.7084172582
  H         5.3167171355        0.7490428188       -2.3678701702
  H         5.2260931548        2.4939857100       -1.9885337770
 Cl        -2.7900043428       -3.9916275172        0.3915150428
 Cl        -2.2135180121       -2.8322632826        3.2800009930
 Cl        -1.9649597367        0.5142584846        3.3349294783
 Cl        -3.0034380412       -1.6116292194       -1.9715737398
  C        -2.6288081129       -2.3429134725        0.6271913768
  C        -2.3681935428       -1.8026670328        1.9630338787
  C        -2.2788288024       -0.4692345133        2.0613661567
  C         1.5871976537        1.7417846896       -0.2226937979
  C         1.3202360708        1.2846338402       -1.4565068381
  C        -2.7427853097       -1.4397741838       -0.3564448542
  N         3.6615790755        1.2453328917       -1.2228212737
  C         2.5970923751        1.0207238308       -2.1899013306
  O         2.7814329602        0.6442837952       -3.3258708460
  C         3.0680712522        1.8255877046       -0.0273717647
  O         3.7111121186        2.2302137279        0.9158117133
  C         5.0454793072        1.4821640783       -1.6006293216
      24
 i =      15, E =     -144.2005451032
  O        -1.3122570319        1.1574201501       -0.2136415274
  O        -4.1642822447        1.0251830070        0.3620054586
  S        -2.6392257721        0.3179873506        0.3642416283
  H         0.9034725043        2.0257450030        0.5749719337
  H         0.3604876455        1.0983646520       -1.9339567948
  H         5.6648597163        1.3270119686       -0.7093117218
  H         5.3185065422        0.7493142892       -2.3679859881
  H         5.2260121394        2.4933628124       -1.9885148883
 Cl        -2.7887190881       -3.9929979503        0.3928433981
 Cl        -2.2126480674       -2.8342136505        3.2795473248
 Cl        -1.9648757535        0.5127624845        3.3362350084
 Cl        -3.0034289245       -1.6136605838       -1.9715555789
  C        -2.6290500149       -2.3427931181        0.6270171458
  C        -2.3683783736       -1.8024526299        1.9631856098
  C        -2.2794182086       -0.4691093282        2.0617929520
  C         1.5854250007        1.7424542054       -0.2231030343
  C         1.3185941714        1.2856426232       -1.4561581539
  C        -2.7435189332       -1.4397744410       -0.3566158404
  N         3.6625221418        1.2430719964       -1.2221450330
  C         2.5980263143        1.0194050432       -2.1928268581
  O         2.7806949911        0.6452392796       -3.3234037010
  C         3.0701963431        1.8265790459       -0.0241449812
  O         3.7087689627        2.2293883210        0.9137720338
  C         5.0464075344        1.4812214341       -1.6005897864
      24
 i =      16, E =     -144.2008022088
  O        -1.3197054785        1.1625074098       -0.2140031992
  O        -4.1631754941        1.0300546193        0.3603585592
  S        -2.6423144970        0.3214622142        0.3634397272
  H         0.9015900801        2.0255118817        0.5727883989
  H         0.3600310969        1.0996829645       -1.9323946005
  H         5.6692427944        1.3268500270       -0.7111029136
  H         5.3224314727        0.7496915207       -2.3684274589
  H         5.2258323526        2.4920091007       -1.9884441189
 Cl        -2.7859105464       -3.9955813433        0.3957164008
 Cl        -2.2107899333       -2.8381891331        3.2783330552
 Cl        -1.9647011498        0.5095966231        3.3390697534
 Cl        -3.0034253983       -1.6180081462       -1.9715454352
  C        -2.6295387292       -2.3425467209        0.6268781946
  C        -2.3688275659       -1.8022209313        1.9633362161
  C        -2.2807451714       -0.4688726587        2.0626135354
  C         1.5840357242        1.7438380482       -0.2241524657
  C         1.3175449603        1.2875522092       -1.4560211617
  C        -2.7451167923       -1.4397886432       -0.3568587901
  N         3.6641451126        1.2382890759       -1.2204856704
  C         2.5976257764        1.0205313013       -2.1874924784
  O         2.7806464670        0.6442193780       -3.3273323494
  C         3.0667672731        1.8240699290       -0.0282576738
  O         3.7098765178        2.2314538920        0.9183773086
  C         5.0480228166        1.4794763511       -1.6004689071
      24
 i =      17, E =     -144.2009577157
  O        -1.3205991119        1.1638690596       -0.2143223281
  O        -4.1637006963        1.0313249128        0.3600462994
  S        -2.6427491273        0.3211007911        0.3636786667
  H         0.9010390375        2.0256185298        0.5726516286
  H         0.3596187884        1.0998962513       -1.9323301757
  H         5.6701015608        1.3267968429       -0.7113391870
  H         5.3231816119        0.7496173226       -2.3686329492
  H         5.2257388106        2.4917569266       -1.9884129052
 Cl        -2.7853249043       -3.9957249478        0.3962757645
 Cl        -2.2104379191       -2.8387490523        3.2778892007
 Cl        -1.9646803860        0.5090243929        3.3396172570
 Cl        -3.0034373327       -1.6188112585       -1.9715472004
  C        -2.6296156882       -2.3425652320        0.6270072415
  C        -2.3689469405       -1.8023015227        1.9632514916
  C        -2.2810479236       -0.4689053249        2.0627263729
  C         1.5842670205        1.7442425152       -0.2238652971
  C         1.3177800202        1.2876352435       -1.4566512525
  C        -2.7454443012       -1.4398444796       -0.3568130197
  N         3.6641425676        1.2374547585       -1.2200482857
  C         2.5980856774        1.0192519940       -2.1908735949
  O         2.7799933732        0.6453504320       -3.3241013550
  C         3.0689073153        1.8252903668       -0.0249753199
  O         3.7075464479        2.2302591380        0.9155406446
  C         5.0482148161        1.4793017995       -1.6004030285
      24
 i =      18, E =     -144.2010352211
  O        -1.3226755132        1.1665183427       -0.2148729173
  O        -4.1644838331        1.0337988305        0.3594063400
  S        -2.6437041586        0.3206776222        0.3640547892
  H         0.8999365000        2.0258178906        0.5723049408
  H         0.3588871365        1.1003568052       -1.9321567779
  H         5.6718372163        1.3267016991       -0.7118663574
  H         5.3247005799        0.7495443471       -2.3689816179
  H         5.2255609429        2.4912893615       -1.9883667214
 Cl        -2.7841288442       -3.9960346216        0.3974104615
 Cl        -2.2097180402       -2.8398809618        3.2769760603
 Cl        -1.9646500597        0.5078424056        3.3407227526
 Cl        -3.0034660085       -1.6204507431       -1.9715296686
  C        -2.6297971555       -2.3426103403        0.6271649348
  C        -2.3691738374       -1.8024370009        1.9632041084
  C        -2.2816729614       -0.4690149061        2.0629591166