      24
 i =       0, E =     -143.9196408953
  O        -2.0615412101        1.3885805811       -0.1592952174
  O        -4.0354397565        0.5170019642        0.5529533290
  S        -2.7110673849        0.3787580804        0.3613557888
  H         0.5097214147        2.0796535305        0.5776758731
  H        -0.0117066066        1.1448866754       -1.8849936719
  H         4.8069638949        0.4348898677       -0.1635664562
  H         4.4702197053       -0.1710843543       -1.8218414320
  H         4.6592350401        1.5284419765       -1.5055559360
 Cl        -2.1126124514       -3.6314270360        0.0934757406
 Cl        -1.5325520798       -2.4663366053        3.0166644843
 Cl        -1.7297534679        0.7789750818        3.1924777164
 Cl        -2.7740805101       -1.3381529116       -2.1223762494
  C        -2.1598452389       -2.0198248577        0.4178498989
  C        -1.9015057382       -1.4911452734        1.7421991719
  C        -1.9449152186       -0.1566531032        1.8394289374
  C         1.0371488017        1.5133366915       -0.0332931934
  C         0.7719422985        1.0364185249       -1.2870350798
  C        -2.4012335530       -1.0993289095       -0.5220315211
  N         2.9057854535        0.6916735171       -0.8546090166
  C         1.9757656817        0.5551135696       -1.8739614129
  O         2.1632750933        0.1143156085       -2.9854761156
  C         2.4260156565        1.3663160881        0.2531664654
  O         3.0610789381        1.7228041852        1.2228214904
  C         4.2871952033        0.6214673516       -1.1026533329
      24
 i =       1, E =     -144.0977028094
  O        -1.9376830144        1.5927661609       -0.2634392320
  O        -4.2493739287        0.5440115105        0.5822661099
  S        -2.6630730735        0.2591671911        0.3994799640
  H         0.4696039101        2.1094384926        0.6142339165
  H        -0.0623457372        1.1491753854       -1.9121796773
  H         4.8137842080        0.4336458147       -0.1627058978
  H         4.4770241899       -0.1744338545       -1.8254282318
  H         4.6692694995        1.5493410245       -1.5152525332
 Cl        -2.1130180937       -3.6444467860        0.0949374419
 Cl        -1.5315701982       -2.4769127950        3.0247480716
 Cl        -1.7290460083        0.7776782224        3.1889888942
 Cl        -2.7719426196       -1.3372049773       -2.1194769184
  C        -2.1552271225       -2.0311340681        0.4119131112
  C        -1.8942867997       -1.4938963816        1.7511707347
  C        -1.9293592103       -0.1819051048        1.8959886422
  C         1.0193558332        1.4943022928       -0.0885528117
  C         0.7753673756        1.0607997274       -1.2309628516
  C        -2.4018451140       -1.1551822882       -0.5486138038
  N         2.9528433699        0.6700342805       -0.8568531259
  C         1.9746440445        0.5375080882       -1.9163801227
  O         2.1712334729        0.1123308956       -2.9927743433
  C         2.4402268291        1.3813410337        0.2948429595
  O         3.0690804771        1.7246088858        1.2250656994
  C         4.3207092701        0.6101740949       -1.1056000372
      24
 i =       2, E =     -144.1270046897
  O        -1.9332953415        1.6046182757       -0.2689007692
  O        -4.2762532735        0.5484145169        0.5857271834
  S        -2.6667458777        0.3141672241        0.3785716263
  H         0.4623912664        2.1079163072        0.6145266960
  H        -0.0689255634        1.1489336727       -1.9088831968
  H         4.8204666310        0.4314063967       -0.1598491839
  H         4.4828743609       -0.1791106918       -1.8289796754
  H         4.6743516165        1.5547523313       -1.5183879040
 Cl        -2.1120650332       -3.6539973606        0.0968440564
 Cl        -1.5300326350       -2.4851611099        3.0294892624
 Cl        -1.7272160830        0.7804790645        3.1927578878
 Cl        -2.7717231116       -1.3379184524       -2.1243538473
  C        -2.1480046831       -2.0503832781        0.4190456174
  C        -1.8873022483       -1.5154569208        1.7566045822
  C        -1.9262372464       -0.1839420258        1.9137334557
  C         1.0225103578        1.5315891549       -0.0163402275
  C         0.7498357393        1.0420552810       -1.3042972102
  C        -2.4039231087       -1.1700994393       -0.5593475996
  N         2.9496086616        0.6632778187       -0.8537193501
  C         1.9752461497        0.5475055869       -1.8849312118
  O         2.1772709865        0.1000776287       -3.0246485026
  C         2.4279365093        1.3684114969        0.2666545791
  O         3.0869465248        1.7351699006        1.2524876066
  C         4.3415504829        0.6122673307       -1.1107822193
      24
 i =       3, E =     -144.1501878149
  O        -1.9264103778        1.6199838954       -0.2762186258
  O        -4.2931647822        0.5513702522        0.5878412567
  S        -2.6722973287        0.3387343114        0.3698229711
  H         0.4482600307        2.1164632591        0.6259523666
  H        -0.0865388786        1.1499883345       -1.9168430506
  H         4.8259985719        0.4300316901       -0.1582439373
  H         4.4878517904       -0.1820166085       -1.8316057045
  H         4.6786791497        1.5594388809       -1.5211236619
 Cl        -2.1113189334       -3.6633407676        0.0982015487
 Cl        -1.5285063170       -2.4930004403        3.0346090272
 Cl        -1.7256974298        0.7827397998        3.1968310408
 Cl        -2.7718403134       -1.3391591213       -2.1289336450
  C        -2.1451261198       -2.0552700305        0.4183299305
  C        -1.8838833136       -1.5182134420        1.7592019801
  C        -1.9261710378       -0.1946002722        1.9185737880
  C         1.0143419205        1.5197487577       -0.0537518682
  C         0.7580861569        1.0579680547       -1.2680399224
  C        -2.4040804888       -1.1806925393       -0.5560276062
  N         2.9541845046        0.6574759702       -0.8524459608
  C         1.9819679757        0.5350555581       -1.9134404514
  O         2.1761773863        0.1071287802       -3.0069248839
  C         2.4459365021        1.3762484513        0.2913741808
  O         3.0779372082        1.7293731983        1.2364903563
  C         4.3496737694        0.6132064464       -1.1129533580
      24
 i =       4, E =     -144.1588213912
  O        -1.9161528991        1.6432541893       -0.2872397018
  O        -4.3145552894        0.5555385998        0.5903949627
  S        -2.6820014237        0.3682192540        0.3598670106
  H         0.4373485429        2.1180328615        0.6303029176
  H        -0.0974492547        1.1499009503       -1.9163926312
  H         4.8346326490        0.4282584506       -0.1570814252
  H         4.4960124432       -0.1854510272       -1.8349631745
  H         4.6853617830        1.5655906799       -1.5249096711
 Cl        -2.1100569168       -3.6770562844        0.1006672013
 Cl        -1.5262783989       -2.5047801391        3.0417227893
 Cl        -1.7236004672        0.7846278365        3.2016148957
 Cl        -2.7715968348       -1.3412226139       -2.1340800769
  C        -2.1402215803       -2.0642816855        0.4211013645
  C        -1.8791442867       -1.5274367614        1.7613900571
  C        -1.9278416406       -0.2020253751        1.9240371946
  C         1.0124886584        1.5323427469       -0.0427007713
  C         0.7518210232        1.0605565157       -1.2825392687
  C        -2.4062319371       -1.1896250385       -0.5539716654
  N         2.9622125711        0.6492728011       -0.8506446398
  C         1.9797770813        0.5430174858       -1.8913594253
  O         2.1819972746        0.0988375666       -3.0285272255
  C         2.4341290563        1.3679422532        0.2711394482
  O         3.0914853112        1.7365063937        1.2548983227
  C         4.3594110494        0.6144043610       -1.1157138924
      24
 i =       5, E =     -144.1667035867
  O        -1.9107728818        1.6556955867       -0.2930896402
  O        -4.3243723093        0.5580012518        0.5913713360
  S        -2.6876373887        0.3806555771        0.3559479808
  H         0.4305976780        2.1197911926        0.6339177978
  H        -0.1045804095        1.1498376973       -1.9172901522
  H         4.8397190012        0.4277243895       -0.1573398309
  H         4.5010516736       -0.1864658693       -1.8365944660
  H         4.6891650109        1.5685373219       -1.5268813324
 Cl        -2.1093829568       -3.6847027765        0.1023129815
 Cl        -1.5251892159       -2.5114250959        3.0454033762
 Cl        -1.7225784426        0.7847629117        3.2037083574
 Cl        -2.7712751676       -1.3426240266       -2.1358929539
  C        -2.1381357417       -2.0679968867        0.4218474510
  C        -1.8769518916       -1.5310004947        1.7627438588
  C        -1.9298104278       -0.2057631334        1.9252286644
  C         1.0085351187        1.5339723749       -0.0504218517
  C         0.7510252019        1.0671957448       -1.2768134421
  C        -2.4079247093       -1.1929071340       -0.5517439736
  N         2.9648892638        0.6448984893       -0.8497065645
  C         1.9850634502        0.5341855000       -1.9128418592
  O         2.1802816979        0.1057117175       -3.0116426993
  C         2.4480727505        1.3746531768        0.2902456460
  O         3.0819515652        1.7309359654        1.2391662454
  C         4.3655457747        0.6151679210       -1.1174308656
      24
 i =       6, E =     -144.1712497020
  O        -1.9037783348        1.6734700146       -0.3012991356
  O        -4.3379841134        0.5618056998        0.5925983028
  S        -2.6959252136        0.3984518583        0.3503951945
  H         0.4216277990        2.1206913485        0.6371960623
  H        -0.1133573199        1.1496659496       -1.9165780780
  H         4.8478421470        0.4268898699       -0.1582720882
  H         4.5092613617       -0.1877473761       -1.8388290639
  H         4.6951653963        1.5724939702       -1.5297370520
 Cl        -2.1081368335       -3.6958670095        0.1050318818
 Cl        -1.5234516354       -2.5213922145        3.0505111608
 Cl        -1.7210632772        0.7843087982        3.2063691482
 Cl        -2.7705625700       -1.3448928253       -2.1378897044
  C        -2.1350404736       -2.0735717494        0.4231242022
  C        -1.8737554313       -1.5364225536        1.7646363823
  C        -1.9333841066       -0.2103487324        1.9261927640
  C         1.0091843057        1.5409018530       -0.0498413273
  C         0.7509632200        1.0719536376       -1.2815240145
  C        -2.4109120689       -1.1964645585       -0.5482829499
  N         2.9694191617        0.6384202607       -0.8480207362
  C         1.9827544176        0.5417633025       -1.8947013236
  O         2.1848524309        0.1000918241       -3.0264733641
  C         2.4375309838        1.3687759939        0.2732160479
  O         3.0918047405        1.7359421323        1.2519090726
  C         4.3725557311        0.6163274813       -1.1195999253
      24
 i =       7, E =     -144.1749676249
  O        -1.9015168431        1.6798287296       -0.3041790245
  O        -4.3427118889        0.5635285905        0.5928729808
  S        -2.6990021581        0.4047544213        0.3484263381
  H         0.4184062380        2.1207666717        0.6382443930
  H        -0.1164057115        1.1495082696       -1.9160665071
  H         4.8513238388        0.4268068094       -0.1590464140
  H         4.5128524536       -0.1878402271       -1.8396958803
  H         4.6976260401        1.5739383790       -1.5308560350
 Cl        -2.1076604570       -3.7000277499        0.1063061693
 Cl        -1.5228708200       -2.5253058294        3.0522695759
 Cl        -1.7205528698        0.7836780668        3.2071211066
 Cl        -2.7702008304       -1.3459234543       -2.1381622460
  C        -2.1340527785       -2.0756376147        0.4235607204
  C        -1.8727218216       -1.5383336981        1.7653568644
  C        -1.9351538971       -0.2119660420        1.9262396322
  C         1.0075010026        1.5436938167       -0.0510407292
  C         0.7497108480        1.0750263607       -1.2818265327
  C        -2.4123540944       -1.1973922087       -0.5466672035
  N         2.9710889631        0.6358727053       -0.8473725065
  C         1.9858142700        0.5372210549       -1.9064867706
  O         2.1838367895        0.1042475609       -3.0163939870
  C         2.4453013468        1.3725866573        0.2832877410
  O         3.0861736768        1.7326949069        1.2426109636
  C         4.3755409137        0.6168775424       -1.1205053801
      24
 i =       8, E =     -144.1866875944
  O        -1.8742945980        1.7650546591       -0.3420695993
  O        -4.4053484278        0.5882034345        0.5959100665
  S        -2.7402961615        0.4889066143        0.3221859103
  H         0.3730423964        2.1211386999        0.6513162966
  H        -0.1586919049        1.1478018253       -1.9075266014
  H         4.9010317192        0.4255683642       -0.1713588775
  H         4.5644977889       -0.1883145231       -1.8510218596
  H         4.7323750762        1.5922869959       -1.5459233814
 Cl        -2.1002359441       -3.7558493237        0.1245951419
 Cl        -1.5144479553       -2.5789540948        3.0750066800
 Cl        -1.7136298828        0.7731325016        3.2162400137
 Cl        -2.7645854862       -1.3605615195       -2.1396249876
  C        -2.1210787552       -2.1026571025        0.4294986142
  C        -1.8593415101       -1.5632225399        1.7742064381
  C        -1.9607557394       -0.2335656371        1.9251243286
  C         1.0051812420        1.5792413253       -0.0651222445
  C         0.7506260089        1.1110622039       -1.2927779372
  C        -2.4329155152       -1.2086375020       -0.5234131112
  N         2.9930137967        0.6009667815       -0.8382195392
  C         1.9913714572        0.5487436597       -1.8900345952
  O         2.1963582171        0.1039204394       -3.0224916395
  C         2.4418091797        1.3703807343        0.2638704699
  O         3.0945762530        1.7350678903        1.2427817115
  C         4.4110443517        0.6245505011       -1.1321846779
      24
 i =       9, E =     -144.1891899368
  O        -1.8766474966        1.7645443193       -0.3413674209
  O        -4.4042373292        0.5901340713        0.5949740393
  S        -2.7406897095        0.4888013049        0.3223782831
  H         0.3735207345        2.1195276866        0.6495174093
  H        -0.1573104060        1.1476901826       -1.9054766946
  H         4.9038397192        0.4263832826       -0.1733880061
  H         4.5676457330       -0.1867046894       -1.8512466741
  H         4.7337540465        1.5921369413       -1.5463066542
 Cl        -2.0998541952       -3.7561026921        0.1259260021
 Cl        -1.5145350346       -2.5799690657        3.0740480820
 Cl        -1.7138731802        0.7709496368        3.2152395807
 Cl        -2.7641332642       -1.3615104373       -2.1374577358
  C        -2.1219006017       -2.1021656834        0.4297498952
  C        -1.8601597135       -1.5634514590        1.7742018114
  C        -1.9624249785       -0.2335017973        1.9243886445
  C         1.0044881933        1.5825130808       -0.0625283840
  C         0.7487714793        1.1120059799       -1.2963072726
  C        -2.4342371297       -1.2081226721       -0.5223190775
  N         2.9934658665        0.6003993296       -0.8380574982
  C         1.9947492357        0.5444092477       -1.9030241788
  O         2.1947315511        0.1089373715       -3.0107961391
  C         2.4493286419        1.3746355136        0.2732300600
  O         3.0887863896        1.7319580443        1.2333763896
  C         4.4117278468        0.6250000864       -1.1324792697
      24
 i =      10, E =     -144.1904947593
  O        -1.8923023937        1.7625887070       -0.3372359115
  O        -4.3984858231        0.6036029904        0.5888288822
  S        -2.7432179043        0.4874951509        0.3238724979
  H         0.3727373984        2.1117185121        0.6411925562
  H        -0.1533298833        1.1473490456       -1.8947490631
  H         4.9234837064        0.4315578592       -0.1866640002
  H         4.5894057451       -0.1764072115       -1.8530495237
  H         4.7433438249        1.5912126754       -1.5489820247
 Cl        -2.0969505392       -3.7573753762        0.1349971893
 Cl        -1.5148678524       -2.5867833781        3.0672762283
 Cl        -1.7154141776        0.7565947810        3.2090278009
 Cl        -2.7611990252       -1.3680290048       -2.1234666115
  C        -2.1272590078       -2.1000575094        0.4320880410
  C        -1.8658059679       -1.5642153733        1.7742819770
  C        -1.9734003813       -0.2344721846        1.9196022763
  C         1.0080361797        1.5925501481       -0.0674523392
  C         0.7531752975        1.1223352149       -1.3006444624
  C        -2.4431497629       -1.2045675362       -0.5153109133
  N         2.9966177778        0.5963475896       -0.8371225263
  C         1.9968165950        0.5556099128       -1.8932851344
  O         2.1992751198        0.1099346988       -3.0140879236
  C         2.4460756803        1.3765968914        0.2589497735
  O         3.0932993531        1.7345442781        1.2346112897
  C         4.4143308097        0.6283851647       -1.1342167775
      24
 i =      11, E =     -144.1915581739
  O        -1.8937852809        1.7637236322       -0.3373364477
  O        -4.3993899962        0.6056488292        0.5882408275
  S        -2.7435233839        0.4868198854        0.3242210414
  H         0.3717343077        2.1115063394        0.6410458509
  H        -0.1540415048        1.1474182540       -1.8942121043
  H         4.9260496751        0.4320213095       -0.1877352501
  H         4.5920362241       -0.1756142985       -1.8535603323
  H         4.7443328758        1.5913819449       -1.5493636467
 Cl        -2.0963620306       -3.7571630082        0.1361543910
 Cl        -1.5147124319       -2.5875621899        3.0662630260
 Cl        -1.7155173578        0.7552977593        3.2088584208
 Cl        -2.7610144116       -1.3688895968       -2.1225152414
  C        -2.1278679115       -2.1006275701        0.4326404532
  C        -1.8665708079       -1.5643983886        1.7743624987
  C        -1.9744454613       -0.2351685616        1.9194387661
  C         1.0083767818        1.5934246170       -0.0688345925
  C         0.7537577329        1.1238806392       -1.3003940547
  C        -2.4440869577       -1.2045456070       -0.5145888677
  N         2.9969229604        0.5956971778       -0.8368687335
  C         1.9989397725        0.5525374902       -1.9024866025
  O         2.1982795080        0.1132528600       -3.0065042790
  C         2.4517926453        1.3800308699        0.2667578629
  O         3.0889322489        1.7322437707        1.2275641985
  C         4.4154315866        0.6287196987       -1.1346694318
      24
 i =      12, E =     -144.1917991135
  O        -1.8957752098        1.7650064181       -0.3373797559
  O        -4.4003967200        0.6082097548        0.5874848788
  S        -2.7440219533        0.4862361756        0.3245747456
  H         0.3705647641        2.1111288539        0.6406534349
  H        -0.1548024455        1.1475443209       -1.8933805847
  H         4.9292848091        0.4325910722       -0.1891114572
  H         4.5953649972       -0.1746430864       -1.8542050275
  H         4.7455977908        1.5916226572       -1.5498581899
 Cl        -2.0955939662       -3.7569869562        0.1375899188
 Cl        -1.5144816357       -2.5885636490        3.0650228555
 Cl        -1.7156426700        0.7536934198        3.2086809554
 Cl        -2.7607946279       -1.3699778292       -2.1213721789
  C        -2.1286847459       -2.1011564311        0.4331871015
  C        -1.8674986570       -1.5648714062        1.7744787442
  C        -1.9757642849       -0.2358197959        1.9192885160
  C         1.0096832337        1.5946500411       -0.0697951400
  C         0.7551106775        1.1252873664       -1.3009690781
  C        -2.4452179415       -1.2046699111       -0.5135869269
  N         2.9976326931        0.5948806953       -0.8366134431
  C         1.9990964686        0.5541993780       -1.9006654327
  O         2.1990890829        0.1129035564       -3.0082009812
  C         2.4509591582        1.3801336754        0.2645200325
  O         3.0901475482        1.7329945209        1.2287894113
  C         4.4164367276        0.6291095295       -1.1351129407
      24
 i =      13, E =     -144.1936178820
  O        -1.9203210973        1.7785695399       -0.3370719317
  O        -4.4108219497        0.6381630839        0.5784191216
  S        -2.7516808743        0.4825545446        0.3278185993
  H         0.3589048902        2.1054472359        0.6339196528
  H        -0.1611092399        1.1491624709       -1.8822196930
  H         4.9669312561        0.4393253065       -0.2054736708
  H         4.6341668474       -0.1633364751       -1.8617862129
  H         4.7601133186        1.5947029115       -1.5557035611
 Cl        -2.0861930886       -3.7560797455        0.1542013564
 Cl        -1.5112662935       -2.6008064016        3.0509993329
 Cl        -1.7170672514        0.7352633163        3.2072235155
 Cl        -2.7583861172       -1.3828340071       -2.1084951817
  C        -2.1385551789       -2.1065405441        0.4390083984
  C        -1.8782734216       -1.5712284877        1.7761767709
  C        -1.9911340495       -0.2426629656        1.9182165603
  C         1.0192417457        1.6127103125       -0.0756546555
  C         0.7640458470        1.1416924320       -1.3117824588
  C        -2.4584255994       -1.2069964031       -0.5022053415
  N         3.0062623488        0.5859589740       -0.8339897059
  C         2.0095358093        0.5600787718       -1.9096168821
  O         2.2034965095        0.1192175584       -3.0024974455
  C         2.4618339888        1.3890427284        0.2639145184
  O         3.0895086696        1.7341070199        1.2215355865
  C         4.4280313715        0.6330454118       -1.1395622877
      24
 i =      14, E =     -144.1944103955
  O        -1.9219406737        1.7785810003       -0.3367246475
  O        -4.4107440376        0.6394658996        0.5779357776
  S        -2.7527982187        0.4835502107        0.3276487871
  H         0.3586711133        2.1052987951        0.6334746332
  H        -0.1611094040        1.1493607132       -1.8818178474
  H         4.9682564587        0.4395790046       -0.2061625007
  H         4.6355358672       -0.1629391888       -1.8620339061
  H         4.7604224484        1.5948763295       -1.5558853623
 Cl        -2.0855682771       -3.7567208569        0.1547023943
 Cl        -1.5108140047       -2.6015968014        3.0507530662
 Cl        -1.7170865718        0.7348122303        3.2076202027
 Cl        -2.7584040688       -1.3834225051       -2.1083419213
  C        -2.1390077215       -2.1066321839        0.4392644268
  C        -1.8787235964       -1.5713040605        1.7764621222
  C        -1.9917027440       -0.2430167422        1.9184361009
  C         1.0193523884        1.6123925291       -0.0780765401
  C         0.7651265950        1.1429595198       -1.3100537859
  C        -2.4590878903       -1.2071592792       -0.5022982098
  N         3.0070858298        0.5856722310       -0.8340799614
  C         2.0082582289        0.5635790517       -1.9019847785
  O         2.2050978641        0.1165115885       -3.0094546956
  C         2.4578352243        1.3871451816        0.2575064865
  O         3.0934406898        1.7362031182        1.2271102018
  C         4.4288644873        0.6329934619       -1.1396636881
      24
 i =      15, E =     -144.1945691946
  O        -1.9259021731        1.7790095465       -0.3360220841
  O        -4.4110248552        0.6429609426        0.5767309497
  S        -2.7554454167        0.4854532757        0.3274175744
  H         0.3585202758        2.1046401057        0.6318910510
  H        -0.1604802526        1.1498773655       -1.8804675585
  H         4.9717585889        0.4402450718       -0.2078036199
  H         4.6390843162       -0.1619458787       -1.8627563882
  H         4.7611875088        1.5953612138       -1.5563607267
 Cl        -2.0839479351       -3.7582346816        0.1560491436
 Cl        -1.5096518878       -2.6036306184        3.0500713782
 Cl        -1.7171609028        0.7335926378        3.2086224265
 Cl        -2.7584769045       -1.3849767117       -2.1079985975
  C        -2.1402674982       -2.1067927139        0.4397530727
  C        -1.8799230065       -1.5717408268        1.7771034553
  C        -1.9932514410       -0.2436471051        1.9190731038
  C         1.0188447683        1.6139728470       -0.0792965243
  C         0.7650347075        1.1449828343       -1.3101802374
  C        -2.4607797645       -1.2077259317       -0.5022316319
  N         3.0087967601        0.5850930024       -0.8341919287
  C         2.0099401353        0.5624034338       -1.9065487043
  O         2.2052808984        0.1181918821       -3.0062899541
  C         2.4609834021        1.3889401311        0.2607117478
  O         3.0922003092        1.7355898847        1.2243948515
  C         4.4313627590        0.6329732798       -1.1401343027
      24
 i =      16, E =     -144.1949358181
  O        -1.9339047713        1.7806786824       -0.3348996728
  O        -4.4126534391        0.6505851732        0.5742924470
  S        -2.7605008283        0.4881939985        0.3273289278
  H         0.3577183025        2.1036216077        0.6289415706
  H        -0.1597535372        1.1510612730       -1.8779552165
  H         4.9794847293        0.4416340441       -0.2110733864
  H         4.6467942085       -0.1599516079       -1.8644558007
  H         4.7629467655        1.5964666765       -1.5574227064
 Cl        -2.0804834950       -3.7611047908        0.1589846026
 Cl        -1.5071855187       -2.6078903186        3.0485024125
 Cl        -1.7173632576        0.7309357728        3.2107314690
 Cl        -2.7586853641       -1.3883354920       -2.1073763895
  C        -2.1430131970       -2.1072204548        0.4406925351
  C        -1.8825590787       -1.5727660156        1.7782806715
  C        -1.9966820494       -0.2448205136        1.9204731373
  C         1.0202013174        1.6168488758       -0.0815089164
  C         0.7669027093        1.1483653743       -1.3112671421
  C        -2.4644131473       -1.2089878865       -0.5016768808
  N         3.0123463863        0.5840721941       -0.8344224747
  C         2.0106159294        0.5663880969       -1.9010473939
  O         2.2079471880        0.1166754830       -3.0121274109
  C         2.4592999338        1.3885521412        0.2549125397
  O         3.0962291399        1.7379117130        1.2287442503
  C         4.4358712120        0.6332813477       -1.1412197890
      24
 i =      17, E =     -144.1952260178
  O        -1.9350230609        1.7815424530       -0.3349745366
  O        -4.4137565336        0.6521334696        0.5739420919
  S        -2.7609832779        0.4876786775        0.3276320021
  H         0.3574377228        2.1036445779        0.6286062856
  H        -0.1598305456        1.1513219701       -1.8777304004
  H         4.9810361133        0.4419009665       -0.2115330198
  H         4.6482673523       -0.1596402163       -1.8648783218
  H         4.7633332599        1.5967642309       -1.5576601583
 Cl        -2.0798439047       -3.7613007259        0.1595791988
 Cl        -1.5067530515       -2.6085834473        3.0480888610
 Cl        -1.7174488465        0.7303975976        3.2111021285
 Cl        -2.7587736263       -1.3889851997       -2.1073188579
  C        -2.1435425863       -2.1074748001        0.4408702089
  C        -1.8831177320       -1.5729803988        1.7783756875
  C        -1.9974254323       -0.2449884467        1.9207683055
  C         1.0208735106        1.6175142211       -0.0812397038
  C         0.7673064767        1.1486366375       -1.3121012900
  C        -2.4651505466       -1.2092281115       -0.5013464609
  N         3.0126621336        0.5841242980       -0.8344076826
  C         2.0120773314        0.5647281893       -1.9057434177
  O         2.2075025037        0.1185190565       -3.0081135588
  C         2.4623020415        1.3900506736        0.2584610302
  O         3.0941763862        1.7368767282        1.2253029413
  C         4.4364440095        0.6335511882       -1.1415267548
      24
 i =      18, E =     -144.1953331510
  O        -1.9374945935        1.7830229337       -0.3349750258
  O        -4.4156972406        0.6552901188        0.5731709627
  S        -2.7621340616        0.4869597043        0.3281548032
  H         0.3568721316        2.1036995134        0.6279220911
  H        -0.1599823677        1.1518591513       -1.8772880765
  H         4.9841585094        0.4424715816       -0.2126093227
  H         4.6512729708       -0.1589215403       -1.8656853496
  H         4.7641619949        1.5973912938       -1.5581771385
 Cl        -2.0785342857       -3.7617183350        0.1607829527
 Cl        -1.5058719712       -2.6099779764        3.0472279569
 Cl        -1.7176340881        0.7293020891        3.2118769436
 Cl        -2.7589574372       -1.3903044937       -2.1071473074
  C        -2.1446169716       -2.1080154402        0.4412787371
  C        -1.8842544816       -1.5733803559        1.7786368621
  C        -1.9989492681       -0.2454316524        1.9213509819