      24
 i =       0, E =     -144.1434247446
  O        -2.8754309287        2.1936832085       -0.3125759029
  O        -4.3429013203        0.0610389166        0.8188630256
  S        -2.8626515399        0.6407628809        0.2982514821
  H        -0.3059457597        2.1617938656        0.6433247356
  H        -0.7813983837        1.2043777069       -1.7805992825
  H         3.5861687361       -1.0181490514        0.6593384544
  H         3.2674075292       -1.6601673313       -0.9665975295
  H         3.8465065400        0.0120625610       -0.7694542531
 Cl        -0.9853996576       -3.1845448717       -0.2863184983
 Cl        -0.4183597965       -2.0432028145        2.6046056516
 Cl        -1.3430058563        1.1043772728        2.9982808304
 Cl        -2.3885185922       -0.9991020606       -2.3288796777
  C        -1.3903927736       -1.6051859224        0.1190350267
  C        -1.1350291422       -1.0914830970        1.4200068222
  C        -1.4370204871        0.2390833000        1.5887661645
  C         0.0656421644        1.2079496835        0.2577157162
  C        -0.1833204611        0.7065774233       -1.0117863200
  C        -1.9012514422       -0.6944416479       -0.7751706604
  N         1.8000323561       -0.3572859949       -0.2223997063
  C         0.9506847507       -0.2038562664       -1.4035611559
  O         1.1643422083       -0.7483702195       -2.4604308729
  C         1.3733265019        0.6472920562        0.7516631981
  O         1.9908117981        0.9161129390        1.7544419663
  C         3.2010463792       -0.7648964929       -0.3361281091
      24
 i =       1, E =     -144.1433478516
  O        -2.8783721958        2.1966930271       -0.3131654399
  O        -4.3442606028        0.0594473222        0.8197696913
  S        -2.8628925842        0.6418028926        0.2981810160
  H        -0.3089352436        2.1618548400        0.6433800063
  H        -0.7839756220        1.2045098714       -1.7800342187
  H         3.5821157121       -1.0232393323        0.6623026148
  H         3.2633736736       -1.6653325889       -0.9637316817
  H         3.8436410390        0.0066955737       -0.7669644368
 Cl        -0.9815861973       -3.1828210434       -0.2875025455
 Cl        -0.4149464236       -2.0412624358        2.6025140030
 Cl        -1.3417253087        1.1055110948        2.9975508213
 Cl        -2.3871953004       -0.9978553805       -2.3295229395
  C        -1.3878409735       -1.6035658620        0.1176211343
  C        -1.1317066059       -1.0908641871        1.4200707624
  C        -1.4357153722        0.2405387598        1.5876903807
  C         0.0625131320        1.2065523136        0.2584648328
  C        -0.1869002618        0.7053174296       -1.0106489104
  C        -1.8997037390       -0.6933318037       -0.7761715341
  N         1.7958054865       -0.3614044137       -0.2209847283
  C         0.9477783294       -0.2067443889       -1.4019139823
  O         1.1607944644       -0.7511677276       -2.4586223319
  C         1.3711447990        0.6457441507        0.7561735491
  O         1.9860065609        0.9130467538        1.7545359031
  C         3.1967159257       -0.7697169226       -0.3333303650
      24
 i =       2, E =     -144.1432820998
  O        -2.8804518104        2.1974350346       -0.3130291880
  O        -4.3438497185        0.0587193553        0.8200047066
  S        -2.8640715111        0.6427134202        0.2981893353
  H        -0.3105003542        2.1616328317        0.6430341716
  H        -0.7852067725        1.2046422776       -1.7794876478
  H         3.5797001326       -1.0257736105        0.6639334884
  H         3.2606163094       -1.6687130401       -0.9611549165
  H         3.8415217068        0.0026178011       -0.7658134055
 Cl        -0.9794093957       -3.1816771322       -0.2882740562
 Cl        -0.4128816634       -2.0401356656        2.6014431738
 Cl        -1.3408132435        1.1062283649        2.9971782817
 Cl        -2.3862903843       -0.9971454322       -2.3300484559
  C        -1.3858289566       -1.6027220916        0.1180248380
  C        -1.1300488946       -1.0905521559        1.4188891154
  C        -1.4341692103        0.2417461200        1.5863891307
  C         0.0603018318        1.2058489593        0.2607626182
  C        -0.1896474291        0.7034246756       -1.0108525534
  C        -1.8981336951       -0.6916251747       -0.7770376487
  N         1.7931483806       -0.3633230394       -0.2197019240
  C         0.9456318007       -0.2079519590       -1.4002691900
  O         1.1585550966       -0.7531604613       -2.4578098706
  C         1.3670338702        0.6435814273        0.7542814555
  O         1.9852266407        0.9120453940        1.7583858084
  C         3.1939074124       -0.7726382635       -0.3316963275
      24
 i =       3, E =     -144.1433127337
  O        -2.8820773339        2.1978383754       -0.3128507929
  O        -4.3434973696        0.0581584471        0.8201786214
  S        -2.8649385483        0.6432918214        0.2982241232
  H        -0.3115466612        2.1617082011        0.6427375697
  H        -0.7860031631        1.2049155512       -1.7792164425
  H         3.5779065077       -1.0274939174        0.6651372987
  H         3.2584627074       -1.6713148619       -0.9590957072
  H         3.8398876523       -0.0005063744       -0.7650953784
 Cl        -0.9778768886       -3.1808133901       -0.2888534349
 Cl        -0.4114107346       -2.0392902100        2.6007040491
 Cl        -1.3401350339        1.1067009704        2.9969315801
 Cl        -2.3856275373       -0.9966838270       -2.3304297513
  C        -1.3844815397       -1.6020405410        0.1181590642
  C        -1.1288544158       -1.0904122576        1.4180562885
  C        -1.4324151559        0.2431397333        1.5848443791
  C         0.0578364330        1.2044596589        0.2621963014
  C        -0.1923166072        0.7016141228       -1.0102400850
  C        -1.8961264701       -0.6898541770       -0.7776134463
  N         1.7910538564       -0.3646127347       -0.2188400711
  C         0.9440706255       -0.2092564477       -1.4000846898
  O         1.1567701638       -0.7543077074       -2.4565176800
  C         1.3667749158        0.6431861975        0.7573467939
  O         1.9822201234        0.9102416820        1.7573225551
  C         3.1918136559       -0.7748389674       -0.3303985917
      24
 i =       4, E =     -144.1433746410
  O        -2.8817708830        2.1970742340       -0.3125945112
  O        -4.3431904292        0.0586085201        0.8199029603
  S        -2.8651827515        0.6431378309        0.2984217151
  H        -0.3109097711        2.1616980057        0.6422992395
  H        -0.7851962867        1.2051152165       -1.7792818537
  H         3.5783486286       -1.0270063868        0.6649175132
  H         3.2590270938       -1.6706914796       -0.9597328164
  H         3.8400964033        0.0001812561       -0.7653048803
 Cl        -0.9785155072       -3.1808790597       -0.2886176856
 Cl        -0.4120962777       -2.0393552603        2.6007663242
 Cl        -1.3404860382        1.1064481985        2.9970515654
 Cl        -2.3859705743       -0.9969214814       -2.3302780576
  C        -1.3848094611       -1.6023583914        0.1191713923
  C        -1.1294043889       -1.0913151303        1.4178280811
  C        -1.4315584510        0.2440360611        1.5836449607
  C         0.0572756758        1.2035669232        0.2638357573
  C        -0.1933640455        0.6999445748       -1.0104109895
  C        -1.8949784561       -0.6885947929       -0.7778401804
  N         1.7913484701       -0.3641205143       -0.2190269957
  C         0.9445522853       -0.2083917812       -1.3996314767
  O         1.1573251136       -0.7540694389       -2.4573632669
  C         1.3660512630        0.6431606081        0.7550203070
  O         1.9839427016        0.9112545143        1.7590273001
  C         3.1920051723       -0.7743545579       -0.3306932546
      24
 i =       5, E =     -144.1434429305
  O        -2.8814518616        2.1967102791       -0.3125028989
  O        -4.3432048517        0.0588976918        0.8197671346
  S        -2.8651785966        0.6429554173        0.2985268147
  H        -0.3104071549        2.1617942448        0.6420653195
  H        -0.7846135777        1.2052789882       -1.7794040793
  H         3.5787658361       -1.0265614420        0.6646398929
  H         3.2595701784       -1.6700436535       -0.9603167855
  H         3.8403526014        0.0008848461       -0.7654739636
 Cl        -0.9790750775       -3.1810212584       -0.2884254354
 Cl        -0.4126647499       -2.0394885201        2.6009130983
 Cl        -1.3407784044        1.1062134882        2.9971253868
 Cl        -2.3862453736       -0.9971264139       -2.3301169787
  C        -1.3851552937       -1.6025944246        0.1196836552
  C        -1.1298601537       -1.0917838565        1.4177868285
  C        -1.4308359703        0.2445690488        1.5828734757
  C         0.0566745018        1.2028289664        0.2646157539
  C        -0.1941441980        0.6989169350       -1.0102922967
  C        -1.8940625379       -0.6878024774       -0.7779604993
  N         1.7916982376       -0.3637001914       -0.2192783192
  C         0.9450935342       -0.2083927406       -1.4005858684
  O         1.1576796394       -0.7533176197       -2.4570781643
  C         1.3677610796        0.6440314933        0.7568321496
  O         1.9834214692        0.9112544110        1.7571099429
  C         3.1924213789       -0.7738669668       -0.3309678803
      24
 i =       6, E =     -144.1436248397
  O        -2.8807668372        2.1961359538       -0.3123954497
  O        -4.3432994158        0.0593917622        0.8195454304
  S        -2.8651897633        0.6426940579        0.2986777420
  H        -0.3094906149        2.1619823054        0.6416634596
  H        -0.7835825953        1.2055769293       -1.7796412646
  H         3.5796293929       -1.0257035480        0.6640562922
  H         3.2606987281       -1.6687069698       -0.9614801038
  H         3.8409422038        0.0023403528       -0.7657928537
 Cl        -0.9801605055       -3.1813569879       -0.2880550653
 Cl        -0.4137539440       -2.0397998269        2.6012479625
 Cl        -1.3413260393        1.1057746869        2.9972683305
 Cl        -2.3867560964       -0.9975069222       -2.3297947139
  C        -1.3857914821       -1.6030345879        0.1205764250
  C        -1.1306894029       -1.0926128669        1.4177226906
  C        -1.4295400191        0.2454523898        1.5816045930
  C         0.0559205485        1.2015406332        0.2661578416
  C        -0.1952496394        0.6970713115       -1.0101018702
  C        -1.8924759518       -0.6865191018       -0.7781930000
  N         1.7925519792       -0.3628712480       -0.2197031147
  C         0.9457866021       -0.2073430572       -1.4002950090
  O         1.1587459689       -0.7527171982       -2.4582042686
  C         1.3675825132        0.6442999502        0.7548138529
  O         1.9854210961        0.9125246452        1.7581716528
  C         3.1932506337       -0.7728452007       -0.3315872669
      24
 i =       7, E =     -144.1436949327
  O        -2.8803497115        2.1959109747       -0.3123819384
  O        -4.3434071203        0.0596527643        0.8194406340
  S        -2.8651628917        0.6425528638        0.2987378761
  H        -0.3090003991        2.1620837484        0.6415018303
  H        -0.7830465827        1.2057039842       -1.7797651094
  H         3.5801524412       -1.0252219197        0.6636945204
  H         3.2613815221       -1.6679047145       -0.9621683037
  H         3.8413336235        0.0032250629       -0.7659658309
 Cl        -0.9807693849       -3.1815830298       -0.2878456654
 Cl        -0.4143585822       -2.0400060472        2.6014618899
 Cl        -1.3416278573        1.1055227395        2.9973209364
 Cl        -2.3870329090       -0.9977166009       -2.3296127463
  C        -1.3861233936       -1.6032951082        0.1210338831
  C        -1.1311230782       -1.0930591957        1.4176878872
  C        -1.4289181841        0.2458883794        1.5810980246
  C         0.0555167974        1.2010054458        0.2668604112
  C        -0.1958080707        0.6962408425       -1.0100873822
  C        -1.8917392962       -0.6859323531       -0.7783259270
  N         1.7930630367       -0.3624191539       -0.2199830142
  C         0.9463262181       -0.2072697088       -1.4010817975
  O         1.1592249921       -0.7519776833       -2.4580826525
  C         1.3687904865        0.6449465675        0.7557829030
  O         1.9854247723        0.9127552387        1.7568968244
  C         3.1937838555       -0.7722155167       -0.3319461177
      24
 i =       8, E =     -144.1450351532
  O        -2.8735295519        2.1926531987       -0.3123395840
  O        -4.3451866535        0.0637288756        0.8178373280
  S        -2.8648757471        0.6406431258        0.2995342016
  H        -0.3015264910        2.1637564896        0.6391795247
  H        -0.7750118547        1.2076693916       -1.7817989294
  H         3.5886292234       -1.0176607513        0.6577654155
  H         3.2725120857       -1.6548496326       -0.9732272397
  H         3.8478429738        0.0175702450       -0.7686075229
 Cl        -0.9903565330       -3.1853669635       -0.2845210246
 Cl        -0.4238583108       -2.0434527530        2.6049560689
 Cl        -1.3463360140        1.1017067357        2.9983565728
 Cl        -2.3913761805       -1.0009937188       -2.3267940902
  C        -1.3913882659       -1.6072599835        0.1276021918
  C        -1.1377949526       -1.0995286487        1.4175395214
  C        -1.4197032516        0.2517498702        1.5735169463
  C         0.0507707641        1.1926610467        0.2772573593
  C        -0.2028242238        0.6838521405       -1.0093784532
  C        -1.8808675696       -0.6776754045       -0.7800442072
  N         1.8014454208       -0.3552245590       -0.2242333133
  C         0.9532808746       -0.2011660860       -1.4037569879
  O         1.1685243513       -0.7443119214       -2.4640056889
  C         1.3754888185        0.6501183728        0.7511852713
  O         1.9962631015        0.9209476120        1.7538558190
  C         3.2024781799       -0.7620717054       -0.3379073396
      24
 i =       9, E =     -144.1450740552
  O        -2.8720234633        2.1925920385       -0.3126159941
  O        -4.3457056868        0.0644680293        0.8176004521
  S        -2.8650768245        0.6406278147        0.2995463724
  H        -0.3006635606        2.1639029310        0.6392878956
  H        -0.7742599756        1.2076626421       -1.7821255296
  H         3.5902853880       -1.0166971883        0.6565490739
  H         3.2748527701       -1.6522266327       -0.9754955605
  H         3.8492970279        0.0204763101       -0.7687499264
 Cl        -0.9916627797       -3.1862592164       -0.2839090902
 Cl        -0.4251447324       -2.0443230082        2.6055836797
 Cl        -1.3471297273        1.1012906842        2.9987213476
 Cl        -2.3921644581       -1.0014737035       -2.3264629664
  C        -1.3921893619       -1.6081019929        0.1284916035
  C        -1.1387405763       -1.1006043137        1.4177419943
  C        -1.4198546766        0.2517363945        1.5734335472
  C         0.0513398961        1.1929609303        0.2778627951
  C        -0.2025081034        0.6836464236       -1.0101456680
  C        -1.8809815843       -0.6775823032       -0.7799677046
  N         1.8029646643       -0.3543549639       -0.2249078686
  C         0.9550655942       -0.2009745708       -1.4057582441
  O         1.1699407450       -0.7424157688       -2.4637268440
  C         1.3782145399        0.6514312683        0.7523372024
  O         1.9970268056        0.9217698264        1.7514307978
  C         3.2045425221       -0.7602519936       -0.3390167463
      24
 i =      10, E =     -144.1444438135
  O        -2.8612216923        2.1920990029       -0.3145788558
  O        -4.3496210131        0.0698446816        0.8159140002
  S        -2.8662224625        0.6404273282        0.2996237334
  H        -0.2947399948        2.1652643126        0.6402671470
  H        -0.7692535255        1.2077655680       -1.7847865153
  H         3.6023056845       -1.0099723544        0.6478489280
  H         3.2918042369       -1.6334316998       -0.9917695072
  H         3.8597625356        0.0412312867       -0.7696415154
 Cl        -1.0007832147       -3.1926327104       -0.2795473968
 Cl        -0.4341453640       -2.0505512359        2.6099883076
 Cl        -1.3528734999        1.0982402748        3.0012462471
 Cl        -2.3978392530       -1.0048958345       -2.3240070289
  C        -1.3985624909       -1.6135183010        0.1334888920
  C        -1.1456873946       -1.1070380628        1.4199390902
  C        -1.4209451318        0.2507516753        1.5726660942
  C         0.0561931162        1.1935604608        0.2800144368
  C        -0.1986182919        0.6824800802       -1.0131303422
  C        -1.8815989742       -0.6776057516       -0.7785890553
  N         1.8142594278       -0.3483003343       -0.2296670808
  C         0.9655013977       -0.1936242305       -1.4091319318
  O         1.1820338061       -0.7337515144       -2.4709287663
  C         1.3883073643        0.6573378948        0.7458873132
  O         2.0104413368        0.9308824026        1.7467640804
  C         3.2186939842       -0.7471105448       -0.3470111317
      24
 i =      11, E =     -144.1443608792
  O        -2.8594124561        2.1919801211       -0.3148975464
  O        -4.3504971351        0.0708120324        0.8156521558
  S        -2.8661279174        0.6404039620        0.2995922900
  H        -0.2939350704        2.1653767165        0.6406057334
  H        -0.7686520449        1.2076220566       -1.7852427317
  H         3.6043081784       -1.0092171497        0.6464339253
  H         3.2947373034       -1.6303153364       -0.9945735406
  H         3.8614516078        0.0445978904       -0.7694761416
 Cl        -1.0019491678       -3.1935730049       -0.2788445788
 Cl        -0.4353299917       -2.0515278327        2.6105286731
 Cl        -1.3538993733        1.0976706769        3.0014702928
 Cl        -2.3987869312       -1.0053720495       -2.3234372035
  C        -1.4000620934       -1.6139907983        0.1333635506
  C        -1.1469742830       -1.1071536244        1.4208365188
  C        -1.4214652398        0.2498156635        1.5728310726
  C         0.0572035305        1.1935066769        0.2788403457
  C        -0.1972904653        0.6831350644       -1.0125669233
  C        -1.8819950676       -0.6783799956       -0.7778815214
  N         1.8161112530       -0.3474841328       -0.2303655251
  C         0.9673904058       -0.1933330428       -1.4116161147
  O         1.1836615800       -0.7316007491       -2.4703947417
  C         1.3911054551        0.6589463091        0.7470209966
  O         2.0114343185        0.9317286770        1.7441197870
  C         3.2207866237       -0.7450342299       -0.3482835552
      24
 i =      12, E =     -144.1441798452
  O        -2.8572236428        2.1918164505       -0.3152751393
  O        -4.3515192897        0.0720322425        0.8153071676
  S        -2.8660214254        0.6404009351        0.2995483439
  H        -0.2929756045        2.1653359920        0.6409634939
  H        -0.7678955018        1.2073501756       -1.7856449486
  H         3.6067676568       -1.0083072665        0.6446607510
  H         3.2983398427       -1.6264946813       -0.9979669530
  H         3.8634900837        0.0486501037       -0.7692468673
 Cl        -1.0033631278       -3.1946405590       -0.2779748168
 Cl        -0.4367767203       -2.0526777010        2.6111322569
 Cl        -1.3551370492        1.0969788169        3.0016997229
 Cl        -2.3999092578       -1.0059159819       -2.3227053506
  C        -1.4017569755       -1.6146202369        0.1333896514
  C        -1.1484908897       -1.1074165513        1.4217954305
  C        -1.4222583639        0.2486944753        1.5732323398
  C         0.0587671804        1.1937030868        0.2776555673
  C        -0.1954881276        0.6839390629       -1.0123121941
  C        -1.8827199810       -0.6794083796       -0.7771539997
  N         1.8183451527       -0.3464332528       -0.2312541474
  C         0.9692102568       -0.1917994371       -1.4121147352
  O         1.1860426241       -0.7299993668       -2.4717841055
  C         1.3928080323        0.6601026405        0.7457192712
  O         2.0140530696        0.9333980048        1.7431816809
  C         3.2232935793       -0.7425125271       -0.3498180762
      24
 i =      13, E =     -144.1429690449
  O        -2.8328922546        2.1898693120       -0.3194181856
  O        -4.3623943983        0.0861590780        0.8111450764
  S        -2.8648555160        0.6408645413        0.2988856755
  H        -0.2825567596        2.1629278487        0.6447153175
  H        -0.7593907009        1.2030636699       -1.7885956631
  H         3.6343443058       -0.9985036719        0.6241638531
  H         3.3389012389       -1.5833071550       -1.0357066445
  H         3.8859355902        0.0934475043       -0.7661095870
 Cl        -1.0189464212       -3.2057155754       -0.2680969389
 Cl        -0.4529251839       -2.0650000678        2.6171033479
 Cl        -1.3688675622        1.0892322873        3.0035547498
 Cl        -2.4121139474       -1.0115482264       -2.3141241421
  C        -1.4195706970       -1.6216719991        0.1344431884
  C        -1.1646478962       -1.1108925683        1.4317043607
  C        -1.4333304493        0.2356467923        1.5806686595
  C         0.0781711539        1.1990234723        0.2646812798
  C        -0.1739674406        0.6947551877       -1.0124516955
  C        -1.8938161505       -0.6928341554       -0.7700014413
  N         1.8424950691       -0.3339169599       -0.2414947170
  C         0.9903264200       -0.1786944352       -1.4224462251
  O         1.2113371390       -0.7090319661       -2.4819316663
  C         1.4147407336        0.6731212361        0.7369116951
  O         2.0398977288        0.9509100517        1.7274265274
  C         3.2518689482       -0.7145002479       -0.3668024551
      24
 i =      14, E =     -144.1430301565
  O        -2.8328234119        2.1899320325       -0.3194592403
  O        -4.3620059726        0.0865674018        0.8108882205
  S        -2.8646219749        0.6409857775        0.2987918650
  H        -0.2826668964        2.1622453665        0.6446165333
  H        -0.7593802267        1.2026475759       -1.7880215679
  H         3.6347112081       -0.9984236490        0.6234830123
  H         3.3394580720       -1.5824111297       -1.0358837316
  H         3.8860218271        0.0936480258       -0.7658564663
 Cl        -1.0193070058       -3.2054197026       -0.2679211014
 Cl        -0.4533417295       -2.0648677056        2.6169251717
 Cl        -1.3688188126        1.0892118314        3.0033755517
 Cl        -2.4119715321       -1.0114553239       -2.3139880193
  C        -1.4190328799       -1.6216727479        0.1342183581
  C        -1.1641244179       -1.1107488678        1.4316542187
  C        -1.4340439675        0.2353004387        1.5816259835
  C         0.0789154993        1.1992068097        0.2641324203
  C        -0.1730237860        0.6951504294       -1.0124634798
  C        -1.8947986736       -0.6935815098       -0.7701780903
  N         1.8427958342       -0.3333157024       -0.2417466061
  C         0.9897732513       -0.1783709614       -1.4206485825
  O         1.2117851829       -0.7091027104       -2.4831767899
  C         1.4135745708        0.6721028119        0.7354696608
  O         2.0408133815        0.9516209228        1.7282402043
  C         3.2521733142       -0.7140811130       -0.3669850188
      24
 i =      15, E =     -144.1431099772
  O        -2.8327700148        2.1901652705       -0.3195686022
  O        -4.3610355592        0.0874993948        0.8102794779
  S        -2.8638598971        0.6413192312        0.2985161855
  H        -0.2830132924        2.1605572431        0.6443864636
  H        -0.7594176101        1.2016094964       -1.7865852715
  H         3.6355848250       -0.9982387823        0.6219177464
  H         3.3407102927       -1.5803513704       -1.0362615448
  H         3.8862362460        0.0941193344       -0.7652988669
 Cl        -1.0201814312       -3.2047382030       -0.2675415846
 Cl        -0.4543381730       -2.0645363026        2.6165398517
 Cl        -1.3686082962        1.0892488002        3.0030138616
 Cl        -2.4115704402       -1.0112246090       -2.3137962638
  C        -1.4177712335       -1.6212970443        0.1332160413
  C        -1.1627574729       -1.1099217944        1.4316184280
  C        -1.4357333574        0.2341091684        1.5837935303
  C         0.0803920795        1.1995409975        0.2626281780
  C        -0.1710397996        0.6962194610       -1.0122268634
  C        -1.8970117576       -0.6956183797       -0.7702317308
  N         1.8435317431       -0.3319880039       -0.2423604109
  C         0.9892081117       -0.1797556549       -1.4204049192
  O         1.2120582171       -0.7075591475       -2.4826985519
  C         1.4132975764        0.6707883686        0.7363118266
  O         2.0406759337        0.9523163074        1.7266509152
  C         3.2527456754       -0.7130824839       -0.3673795874
      24
 i =      16, E =     -144.1432973243
  O        -2.8329966313        2.1908359167       -0.3198015011
  O        -4.3589664911        0.0891803373        0.8091059984
  S        -2.8619318092        0.6420601477        0.2978686360
  H        -0.2839804947        2.1571639641        0.6439080907
  H        -0.7597328633        1.1995575948       -1.7836246364
  H         3.6372152619       -0.9979371887        0.6191052956
  H         3.3428664206       -1.5766838635       -1.0368213351
  H         3.8866606149        0.0949272959       -0.7643422037
 Cl        -1.0218902200       -3.2034489149       -0.2669265256
 Cl        -0.4562489269       -2.0638324904        2.6158847363
 Cl        -1.3679213502        1.0895433670        3.0024420266
 Cl        -2.4105874825       -1.0107269245       -2.3137482360
  C        -1.4151102496       -1.6199537792        0.1306188407
  C        -1.1597308187       -1.1075504953        1.4315439015
  C        -1.4390076164        0.2313516877        1.5878236187
  C         0.0831653012        1.1996628217        0.2594891366
  C        -0.1672365294        0.6981289256       -1.0112399900
  C        -1.9011640396       -0.6998373423       -0.7698938254
  N         1.8449717327       -0.3297369602       -0.2435123090
  C         0.9874993269       -0.1816155294       -1.4178960653
  O         1.2127224440       -0.7055759776       -2.4835241352
  C         1.4111566444        0.6676440730        0.7361072922
  O         2.0413465101        0.9541046763        1.7255403845
  C         3.2533227809       -0.7111613483       -0.3680272619
      24
 i =      17, E =     -144.1433350349
  O        -2.8333894078        2.1911303615       -0.3198396889
  O        -4.3584908605        0.0892180928        0.8089832220
  S        -2.8613243349        0.6422010658        0.2977069537
  H        -0.2843634844        2.1566325775        0.6438086173
  H        -0.7599902927        1.1992791471       -1.7831043660
  H         3.6372546449       -0.9979292919        0.6190721573
  H         3.3427244357       -1.5766961978       -1.0366463771
  H         3.8866604843        0.0948439668       -0.7643972867
 Cl        -1.0220966034       -3.2033308003       -0.2669951487
 Cl        -0.4564393819       -2.0636774116        2.6159097942
 Cl        -1.3675304354        1.0897855919        3.0024665993
 Cl        -2.4102266150       -1.0106078534       -2.3140440643
  C        -1.4144439286       -1.6194270375        0.1300316121
  C        -1.1589696514       -1.1068958551        1.4314012128
  C        -1.4393321357        0.2310053663        1.5881602532
  C         0.0831713399        1.1994015601        0.2592579383
  C        -0.1671610355        0.6981254746       -1.0109311421
  C        -1.9015380710       -0.7002853228       -0.7697704647
  N         1.8449131826       -0.3297892237       -0.2435367205
  C         0.9872732039       -0.1824184869       -1.4183673253
  O         1.2123712141       -0.7052149743       -2.4829689611
  C         1.4111539477        0.6674435814        0.7371002988
  O         2.0407431591        0.9540249186        1.7249727478
  C         3.2530018434       -0.7110617338       -0.3679700743
      24
 i =      18, E =     -144.1433843073
  O        -2.8342801310        2.1917305643       -0.3198981127
  O        -4.3573934138        0.0892612654        0.8087228586
  S        -2.8601662287        0.6425174641        0.2973807421
  H        -0.2851967303        2.1555467325        0.6435856117
  H        -0.7605620517        1.1987331607       -1.7820240142
  H         3.6372361327       -0.9978924520        0.6190242247
  H         3.3423038900       -1.5768110386       -1.0361573390
  H         3.8865615071        0.0945185820       -0.7645215568
 Cl        -1.0225148134       -3.2030431223       -0.2671610786
 Cl        -0.4568187013       -2.0633178588        2.6159534611
 Cl        -1.3666711472        1.0902845356        3.0024764897
 Cl        -2.4094204570       -1.0103418739       -2.3146470485
  C        -1.4129376819       -1.6185190718        0.1289815369
  C        -1.1573245106       -1.1057482321        1.4310620386
  C        -1.4399082870        0.2305748976        1.5888864131