      24
 i =       0, E =     -144.0269550541
  O        -1.4511239212        0.7847536106       -0.0443347033
  O        -3.8048435836        0.8589742499        0.3535210565
  S        -2.5973792686        0.1822544800        0.4086840188
  H         1.1214717956        2.0180482791        0.5284392263
  H         0.5655622261        1.1002684018       -1.9632894640
  H         5.7225602640        1.5246690571       -0.7807451392
  H         5.3723288375        0.9457278784       -2.4632743589
  H         5.2687814151        2.6657265382       -2.0576321983
 Cl        -2.9580220468       -3.9665886591        0.3783214198
 Cl        -2.3681962922       -2.7836869484        3.3257086089
 Cl        -2.0198141765        0.5349234385        3.3381253809
 Cl        -3.0632519486       -1.5924410498       -1.9674986782
  C        -2.7369345878       -2.3308040592        0.6419610531
  C        -2.4763631852       -1.7908919056        1.9838434341
  C        -2.3258362672       -0.4534554056        2.0274260171
  C         1.7657787796        1.7423769476       -0.2515498756
  C         1.4883893682        1.2837993511       -1.4934716496
  C        -2.7762201360       -1.4029943557       -0.3321771666
  N         3.7351002766        1.4783931512       -1.3287659993
  C         2.7445763799        1.1243409466       -2.2267616056
  O         2.9124747570        0.7613299794       -3.3792600475
  C         3.2155325224        1.9055841120       -0.1207060842
  O         3.8637792932        2.3278226199        0.8241061335
  C         5.1018068213        1.6612402350       -1.6775472507
      24
 i =       1, E =     -144.1487490593
  O        -1.2955573213        0.8682584879       -0.1068258786
  O        -3.9533077450        0.9514165384        0.3432897736
  S        -2.5980608645        0.1008940824        0.4420298740
  H         1.1108170170        2.0208660021        0.5420642503
  H         0.5517641667        1.0961557391       -1.9688572964
  H         5.7307527728        1.5304862639       -0.7875528755
  H         5.3814921380        0.9526146976       -2.4663224806
  H         5.2755106788        2.6788130815       -2.0636338140
 Cl        -2.9632609710       -3.9707569434        0.3822855477
 Cl        -2.3738798071       -2.7884549801        3.3274854134
 Cl        -2.0225552498        0.5286743497        3.3339840158
 Cl        -3.0634560869       -1.5943643709       -1.9602601119
  C        -2.7399329924       -2.3341619370        0.6414157443
  C        -2.4785503419       -1.7921378204        1.9871801869
  C        -2.3238081338       -0.4852615801        2.0830488577
  C         1.7561036979        1.7373955657       -0.2716047814
  C         1.4862804814        1.2941740137       -1.4721398300
  C        -2.7879561877       -1.4631387518       -0.3484392435
  N         3.7828921076        1.4772063958       -1.3392479889
  C         2.7302319578        1.1116628940       -2.2761538392
  O         2.9198358461        0.7674962479       -3.3757943072
  C         3.2220182787        1.9295170072       -0.0711358063
  O         3.8657523822        2.3282950889        0.8140481966
  C         5.1310218176        1.6675740559       -1.6872650658
      24
 i =       2, E =     -144.1612552896
  O        -1.2720651985        0.8777880972       -0.1150780796
  O        -3.9753795999        0.9692448222        0.3402175492
  S        -2.5938892439        0.1236787863        0.4320832996
  H         1.1097323395        2.0199406723        0.5433548728
  H         0.5504288185        1.0951684188       -1.9681558771
  H         5.7401955461        1.5359981810       -0.7914150073
  H         5.3907704728        0.9575804525       -2.4715481265
  H         5.2822617571        2.6885734056       -2.0686196674
 Cl        -2.9680899620       -3.9758031792        0.3865508549
 Cl        -2.3791105948       -2.7942613105        3.3296755195
 Cl        -2.0238043529        0.5266258759        3.3366719033
 Cl        -3.0651399546       -1.5977630492       -1.9607692168
  C        -2.7429667907       -2.3537167568        0.6528526104
  C        -2.4825368403       -1.8136371020        1.9930970365
  C        -2.3243183219       -0.4849391185        2.0990688660
  C         1.7611130726        1.7479284961       -0.2506552455
  C         1.4826908298        1.2889586476       -1.4942371430
  C        -2.7935036531       -1.4735422133       -0.3585390890
  N         3.7763367130        1.4766816835       -1.3375727376
  C         2.7331046698        1.1296439251       -2.2359100692
  O         2.9302218219        0.7583573738       -3.4186765098
  C         3.2051724512        1.9166296541       -0.1125459191
  O         3.8937180920        2.3474044903        0.8472389161
  C         5.1489699541        1.6772849956       -1.6949461209
      24
 i =       3, E =     -144.1750720404
  O        -1.2559418448        0.8833790065       -0.1203645475
  O        -3.9880223956        0.9805706021        0.3380187077
  S        -2.5925416313        0.1375912477        0.4262479084
  H         1.1075950968        2.0202563891        0.5473142525
  H         0.5472609110        1.0936203033       -1.9696803574
  H         5.7481001961        1.5410029768       -0.7946755700
  H         5.3984550467        0.9621548210       -2.4760640989
  H         5.2877101597        2.6969834427       -2.0728679258
 Cl        -2.9725322703       -3.9818332675        0.3898237342
 Cl        -2.3835193972       -2.8001741494        3.3330120448
 Cl        -2.0247244254        0.5253691546        3.3400605073
 Cl        -3.0668617559       -1.6010018583       -1.9621238489
  C        -2.7459897210       -2.3588111031        0.6529071517
  C        -2.4847312115       -1.8167715046        1.9972155461
  C        -2.3271285368       -0.4952662776        2.1045417391
  C         1.7577934162        1.7465759009       -0.2598680861
  C         1.4838703579        1.2943078141       -1.4856617628
  C        -2.7965509955       -1.4843465946       -0.3542920739
  N         3.7840906026        1.4779475192       -1.3395735025
  C         2.7437610143        1.1208398547       -2.2760382613
  O         2.9294058906        0.7701581498       -3.3936618170
  C         3.2328205133        1.9340489902       -0.0823798134
  O         3.8803483458        2.3401342741        0.8223329139
  C         5.1556544486        1.6835699886       -1.6989162450
      24
 i =       4, E =     -144.1777029292
  O        -1.2349723155        0.8899793868       -0.1269804692
  O        -4.0030668818        0.9952664111        0.3349272072
  S        -2.5913894892        0.1564258005        0.4184080276
  H         1.1062409903        2.0196383218        0.5501423451
  H         0.5454742826        1.0921317593       -1.9698613585
  H         5.7600038766        1.5486084413       -0.8002297105
  H         5.4102049790        0.9695214825       -2.4823664241
  H         5.2961191185        2.7088648942       -2.0790127451
 Cl        -2.9791372703       -3.9912495224        0.3949384207
 Cl        -2.3901050130       -2.8093708036        3.3379833926
 Cl        -2.0262806957        0.5226556858        3.3446364367
 Cl        -3.0693020256       -1.6061283410       -1.9631229918
  C        -2.7500883890       -2.3682982359        0.6577699163
  C        -2.4888959384       -1.8264380732        2.0015115119
  C        -2.3309156263       -0.5030837685        2.1103436629
  C         1.7644989955        1.7511331909       -0.2582284917
  C         1.4891776855        1.2962533082       -1.4914424094
  C        -2.8009688771       -1.4933597030       -0.3515915140
  N         3.7927468476        1.4797923507       -1.3417243717
  C         2.7442321258        1.1357545668       -2.2479797634
  O         2.9395614046        0.7661499516       -3.4248536290
  C         3.2193034814        1.9270033435       -0.1121790528
  O         3.9023922503        2.3555251285        0.8439818403
  C         5.1646762702        1.6929223724       -1.7048084901
      24
 i =       5, E =     -144.1852736020
  O        -1.2252707291        0.8926071186       -0.1298551038
  O        -4.0092305403        1.0022362913        0.3333114436
  S        -2.5910867310        0.1653496278        0.4146815338
  H         1.1062738848        2.0191096920        0.5511342828
  H         0.5454526736        1.0914116625       -1.9697737259
  H         5.7663935839        1.5530187476       -0.8036467997
  H         5.4165860228        0.9740044888       -2.4856507576
  H         5.3006279767        2.7149548730       -2.0822437031
 Cl        -2.9827769801       -3.9966553055        0.3979167649
 Cl        -2.3937481612       -2.8147664015        3.3408637619
 Cl        -2.0272683049        0.5205396158        3.3469199733
 Cl        -3.0705983482       -1.6092080278       -1.9630889148
  C        -2.7524216412       -2.3723330847        0.6596377726
  C        -2.4911816438       -1.8301788969        2.0034808587
  C        -2.3332697369       -0.5068936680        2.1117218941
  C         1.7630642559        1.7525857465       -0.2593686681
  C         1.4883858147        1.2984330546       -1.4908887910
  C        -2.8031537327       -1.4967014170       -0.3490745117
  N         3.7979379655        1.4807387156       -1.3431231770
  C         2.7527636908        1.1288784498       -2.2799207822
  O         2.9384733658        0.7763689572       -3.4027753053
  C         3.2411967749        1.9409627545       -0.0882331252
  O         3.8904566835        2.3491019763        0.8224297876
  C         5.1702760439        1.6979672724       -1.7080754192
      24
 i =       6, E =     -144.1860757363
  O        -1.2118689361        0.8960145023       -0.1337365161
  O        -4.0173583992        1.0122139886        0.3308846372
  S        -2.5907086079        0.1780335282        0.4094016676
  H         1.1059532724        2.0182181972        0.5524696816
  H         0.5451096417        1.0903941083       -1.9693807453
  H         5.7763021491        1.5597020140       -0.8091480064
  H         5.4265582099        0.9809631177       -2.4904634374
  H         5.3077122489        2.7239036733       -2.0870786622
 Cl        -2.9881985352       -4.0047900351        0.4025460174
 Cl        -2.3992433117       -2.8229046270        3.3449580205
 Cl        -2.0288443813        0.5168970711        3.3501820967
 Cl        -3.0724830884       -1.6140618071       -1.9624759808
  C        -2.7559273039       -2.3779997297        0.6625694176
  C        -2.4946822700       -1.8358539995        2.0063457634
  C        -2.3368787945       -0.5117350461        2.1128848855
  C         1.7686073902        1.7553381060       -0.2615275766
  C         1.4941110828        1.3014171157       -1.4926812031
  C        -2.8063785600       -1.5005118939       -0.3454082478
  N         3.8046228804        1.4820222153       -1.3448867375
  C         2.7529770431        1.1410065929       -2.2574637612
  O         2.9464271427        0.7739301887       -3.4261161167
  C         3.2304974580        1.9357734593       -0.1114717892
  O         3.9068660600        2.3608499057        0.8379409239
  C         5.1773629502        1.7055358020       -1.7128343810
      24
 i =       7, E =     -144.1909643568
  O        -1.2073013730        0.8970499504       -0.1350045281
  O        -4.0198492307        1.0158912375        0.3299074565
  S        -2.5906010565        0.1824686414        0.4075419656
  H         1.1064102202        2.0176860502        0.5524416484
  H         0.5457393006        1.0901140056       -1.9689729489
  H         5.7802041048        1.5624440787       -0.8114688448
  H         5.4305069774        0.9838874339       -2.4923287585
  H         5.3104755011        2.7273056734       -2.0889581178
 Cl        -2.9903227345       -4.0078956767        0.4044762393
 Cl        -2.4014473114       -2.8261166195        3.3464377305
 Cl        -2.0295557663        0.5151044549        3.3512857112
 Cl        -3.0731936182       -1.6161050709       -1.9618721010
  C        -2.7573438206       -2.3799745792        0.6636389143
  C        -2.4961116367       -1.8378260416        2.0073694010
  C        -2.3383368893       -0.5133000234        2.1129703336
  C         1.7682155358        1.7567481485       -0.2610260688
  C         1.4935043307        1.3023413181       -1.4936428440
  C        -2.8076335486       -1.5014997236       -0.3439072708
  N         3.8076337446        1.4824888981       -1.3457026184
  C         2.7578086101        1.1373765387       -2.2751022313
  O         2.9457960324        0.7799283433       -3.4133902937
  C         3.2424819901        1.9435360305       -0.0984749777
  O         3.9000944953        2.3573199657        0.8256674068
  C         5.1804258480        1.7085154833       -1.7147245069
      24
 i =       8, E =     -144.1962657030
  O        -1.1480325111        0.9096825407       -0.1510800147
  O        -4.0505400366        1.0655121231        0.3163111606
  S        -2.5892117280        0.2415601509        0.3831973191
  H         1.1097153014        2.0108582945        0.5540561704
  H         0.5507506750        1.0858004127       -1.9640806455
  H         5.8354245557        1.6009739681       -0.8447370065
  H         5.4865467909        1.0253287432       -2.5181280794
  H         5.3497114160        2.7740352443       -2.1150058299
 Cl        -3.0195879001       -4.0498871104        0.4317147300
 Cl        -2.4321701795       -2.8698421974        3.3654987366
 Cl        -2.0397874051        0.4888410449        3.3661254253
 Cl        -3.0829486735       -1.6450367753       -1.9520716754
  C        -2.7772282082       -2.4056328889        0.6776422441
  C        -2.5161088574       -1.8641867480        2.0219520517
  C        -2.3588324958       -0.5341907342        2.1113773136
  C         1.7885213497        1.7725132091       -0.2715026638
  C         1.5150780467        1.3196379860       -1.5015097762
  C        -2.8248598669       -1.5136409518       -0.3222799437
  N         3.8455830716        1.4887328777       -1.3561210692
  C         2.7799213151        1.1666258978       -2.2699536789
  O         2.9715492289        0.7998946311       -3.4381175092
  C         3.2563442058        1.9597042630       -0.1254859327
  O         3.9269475633        2.3835107382        0.8234668953
  C         5.2183174715        1.7494671766       -1.7403132206
      24
 i =       9, E =     -144.1998046418
  O        -1.1489382520        0.9101627963       -0.1510605625
  O        -4.0499016545        1.0666939993        0.3158142951
  S        -2.5892537856        0.2412886686        0.3833070324
  H         1.1104789144        2.0102502520        0.5526688489
  H         0.5521041174        1.0860990982       -1.9630936614
  H         5.8367941316        1.6016802293       -0.8460208028
  H         5.4880208631        1.0264376373       -2.5183280193
  H         5.3505768460        2.7740742740       -2.1153333101
 Cl        -3.0195894244       -4.0499763444        0.4329017337
 Cl        -2.4325858020       -2.8706779445        3.3647929729
 Cl        -2.0402011169        0.4868215300        3.3659114332
 Cl        -3.0829091923       -1.6463527061       -1.9504730791
  C        -2.7775549128       -2.4053773948        0.6778727257
  C        -2.5164209179       -1.8637795496        2.0217326060
  C        -2.3592543779       -0.5341843691        2.1106786360
  C         1.7864773979        1.7738396277       -0.2689062660
  C         1.5123575111        1.3193897031       -1.5033711666
  C        -2.8251239915       -1.5129262647       -0.3219685417
  N         3.8465527864        1.4880387015       -1.3557447080
  C         2.7830150287        1.1617581247       -2.2863872021
  O         2.9692183631        0.8046010470       -3.4246054469
  C         3.2657849218        1.9654367797       -0.1133120309
  O         3.9192806127        2.3792806647        0.8130781629
  C         5.2190083048        1.7498636882       -1.7405848975
      24
 i =      10, E =     -144.1997449832
  O        -1.1546807902        0.9134947506       -0.1510377328
  O        -4.0452226244        1.0749396591        0.3123114160
  S        -2.5902439315        0.2396187136        0.3840497783
  H         1.1120314720        2.0072309840        0.5472137678
  H         0.5565172688        1.0870920283       -1.9583486622
  H         5.8471632200        1.6067527182       -0.8547832544
  H         5.4988052158        1.0342603795       -2.5201214278
  H         5.3570169265        2.7750234004       -2.1180356912
 Cl        -3.0198118847       -4.0504836261        0.4411101161
 Cl        -2.4356752231       -2.8762342475        3.3598224970
 Cl        -2.0431091335        0.4731147730        3.3645669519
 Cl        -3.0828707396       -1.6555365681       -1.9403017218
  C        -2.7800187965       -2.4033598312        0.6790571252
  C        -2.5189284013       -1.8624752716        2.0201829948
  C        -2.3619434600       -0.5333774157        2.1070265531
  C         1.7853627144        1.7771259595       -0.2711936018
  C         1.5126769710        1.3236763333       -1.5038263550
  C        -2.8269880741       -1.5090813988       -0.3190107336
  N         3.8517808396        1.4829237950       -1.3540496465
  C         2.7820112145        1.1672902184       -2.2768254312
  O         2.9706169523        0.8056319197       -3.4321077344
  C         3.2609003031        1.9635492606       -0.1233074275
  O         3.9221930533        2.3848235682        0.8187736222
  C         5.2217489626        1.7529074303       -1.7420651323
      24
 i =      11, E =     -144.2008022849
  O        -1.1551250221        0.9142291424       -0.1512085066
  O        -4.0447159544        1.0762041730        0.3118133396
  S        -2.5906779942        0.2399446704        0.3840042135
  H         1.1116056651        2.0070960785        0.5472551008
  H         0.5562652231        1.0870507133       -1.9581772382
  H         5.8486981534        1.6073807346       -0.8555398343
  H         5.5001823772        1.0350818828       -2.5205706511
  H         5.3576822119        2.7754460417       -2.1184467728
 Cl        -3.0197861665       -4.0503321027        0.4422095944
 Cl        -2.4360668279       -2.8768276842        3.3590028018
 Cl        -2.0433395756        0.4718150028        3.3650394038
 Cl        -3.0829808880       -1.6568191901       -1.9396722651
  C        -2.7803896465       -2.4034584551        0.6791625468
  C        -2.5192872428       -1.8627652772        2.0202863659
  C        -2.3623354283       -0.5336887157        2.1066874516
  C         1.7856121605        1.7776626332       -0.2712618387
  C         1.5125876512        1.3240967533       -1.5042130368
  C        -2.8272737839       -1.5091683832       -0.3184081315
  N         3.8518625244        1.4820284759       -1.3538236738
  C         2.7841174697        1.1645165753       -2.2866231963
  O         2.9691610939        0.8087048805       -3.4238557947
  C         3.2669356644        1.9674970577       -0.1150385135
  O         3.9168876128        2.3820600324        0.8116167679
  C         5.2224969913        1.7532951154       -1.7425001231
      24
 i =      12, E =     -144.2004193846
  O        -1.1557038842        0.9152041077       -0.1514415581
  O        -4.0441905042        1.0778563792        0.3111844689
  S        -2.5911479140        0.2403618655        0.3839356141
  H         1.1110454007        2.0068989183        0.5472108645
  H         0.5558931411        1.0870208608       -1.9579068123
  H         5.8506116149        1.6081284953       -0.8565225658
  H         5.5019299256        1.0360604297       -2.5211254483
  H         5.3585194048        2.7759288441       -2.1189480622
 Cl        -3.0197208530       -4.0502104590        0.4435717349
 Cl        -2.4365148445       -2.8776110702        3.3580074819
 Cl        -2.0436146922        0.4701883432        3.3656413402
 Cl        -3.0831065488       -1.6584360342       -1.9388864292
  C        -2.7808116206       -2.4036192654        0.6794317955
  C        -2.5197167402       -1.8631067729        2.0203615384
  C        -2.3628121287       -0.5340521244        2.1063115522
  C         1.7866530650        1.7782471074       -0.2717964541
  C         1.5135239049        1.3247559901       -1.5045705232
  C        -2.8276450674       -1.5091866198       -0.3178351193
  N         3.8523687368        1.4809120553       -1.3535403521
  C         2.7841217017        1.1656130086       -2.2843649648
  O         2.9693787617        0.8087044877       -3.4257015164
  C         3.2656584935        1.9669514091       -0.1170416957
  O         3.9175901715        2.3832180741        0.8130697788
  C         5.2229996840        1.7536792866       -1.7428689001
      24
 i =      13, E =     -144.2005928618
  O        -1.1630842005        0.9265036186       -0.1540696380
  O        -4.0384717609        1.0975584758        0.3038378298
  S        -2.5957181277        0.2456428144        0.3827720245
  H         1.1069557973        2.0040412021        0.5441265154
  H         0.5544059068        1.0874121791       -1.9537192970
  H         5.8726101928        1.6171519447       -0.8685174310
  H         5.5222783278        1.0476106710       -2.5277683664
  H         5.3677919234        2.7814318044       -2.1246546372
 Cl        -3.0191246739       -4.0498367675        0.4594692394
 Cl        -2.4417646091       -2.8875769467        3.3472060813
 Cl        -2.0468392170        0.4510591864        3.3730688295
 Cl        -3.0846896158       -1.6776951986       -1.9299365488
  C        -2.7857501157       -2.4054341020        0.6829403507
  C        -2.5248400857       -1.8665100187        2.0208348306
  C        -2.3685564834       -0.5382108368        2.1021696142
  C         1.7916541521        1.7859695302       -0.2737652589
  C         1.5179267990        1.3315582314       -1.5098355650
  C        -2.8322193608       -1.5089988746       -0.3116231759
  N         3.8608047507        1.4682585902       -1.3499937180
  C         2.7905244271        1.1674162150       -2.2927727460
  O         2.9675053884        0.8176170671       -3.4197040012
  C         3.2727390045        1.9728310336       -0.1130737143
  O         3.9098850634        2.3868168652        0.8072370747
  C         5.2294769178        1.7582810858       -1.7467387145
      24
 i =      14, E =     -144.2015655255
  O        -1.1634377069        0.9274801941       -0.1543613455
  O        -4.0387313300        1.0987822416        0.3034975326
  S        -2.5957888510        0.2457028576        0.3827410611
  H         1.1068779403        2.0039316071        0.5436768993
  H         0.5545918450        1.0876074956       -1.9534087909
  H         5.8731986972        1.6172959694       -0.8690436673
  H         5.5228682650        1.0478418483       -2.5278665458
  H         5.3677715235        2.7812310315       -2.1246607187
 Cl        -3.0188943027       -4.0502546801        0.4600273518
 Cl        -2.4417033638       -2.8883013196        3.3470906748
 Cl        -2.0469114326        0.4502335395        3.3734261166
 Cl        -3.0847128741       -1.6785705113       -1.9297147724
  C        -2.7858023519       -2.4053514874        0.6830130455
  C        -2.5249460233       -1.8665357165        2.0206200130
  C        -2.3686305226       -0.5378369581        2.1026087616
  C         1.7910612670        1.7857296688       -0.2751115923
  C         1.5180924197        1.3322606861       -1.5086838371
  C        -2.8324862597       -1.5090560988       -0.3119203050
  N         3.8616340778        1.4674112654       -1.3497181211
  C         2.7888513486        1.1703522054       -2.2832955220
  O         2.9687930047        0.8151609769       -3.4281826656
  C         3.2676489212        1.9695427600       -0.1203589016
  O         3.9142093122        2.3899249803        0.8138551527
  C         5.2297986328        1.7582011929       -1.7466677522
      24
 i =      15, E =     -144.2015805788
  O        -1.1645689850        0.9296140856       -0.1549219375
  O        -4.0387906369        1.1016801071        0.3026077581
  S        -2.5961279170        0.2459094283        0.3826633061
  H         1.1070558835        2.0036515350        0.5424062511
  H         0.5554880737        1.0881481783       -1.9526570314
  H         5.8749504795        1.6179529986       -0.8703626087
  H         5.5245121360        1.0487032126       -2.5283211062
  H         5.3677426362        2.7810746719       -2.1248074634
 Cl        -3.0185176733       -4.0512556491        0.4615154350
 Cl        -2.4417758278       -2.8901119322        3.3467721252
 Cl        -2.0471488094        0.4481799952        3.3745158754
 Cl        -3.0848799656       -1.6808681214       -1.9292360862
  C        -2.7861386011       -2.4052117291        0.6830560441
  C        -2.5253222154       -1.8662797378        2.0203040661
  C        -2.3690099719       -0.5374125377        2.1035119923
  C         1.7889186300        1.7862201850       -0.2753254496
  C         1.5164342476        1.3330303454       -1.5082858767
  C        -2.8332203862       -1.5092767625       -0.3123576273
  N         3.8632437148        1.4654999362       -1.3489917729
  C         2.7899933326        1.1687788805       -2.2885100521
  O         2.9680697673        0.8170035874       -3.4244764894
  C         3.2709750316        1.9713399162       -0.1163734093
  O         3.9116639488        2.3892266996        0.8110072821
  C         5.2312474749        1.7582962632       -1.7468767588
      24
 i =      16, E =     -144.2014897203
  O        -1.1671244659        0.9343566080       -0.1561714343
  O        -4.0387050337        1.1076594583        0.3007599886
  S        -2.5972649442        0.2469456847        0.3823810603
  H         1.1063935234        2.0033115793        0.5405794912
  H         0.5561082492        1.0890806712       -1.9514700765
  H         5.8788735105        1.6190861945       -0.8728074191
  H         5.5280136866        1.0502207781       -2.5292819291
  H         5.3676467961        2.7807321616       -2.1251015319
 Cl        -3.0174704176       -4.0531356760        0.4647152044
 Cl        -2.4417599822       -2.8937519680        3.3457149860
 Cl        -2.0475250974        0.4440384638        3.3771785599
 Cl        -3.0852206121       -1.6858158878       -1.9284635438
  C        -2.7867722844       -2.4049537381        0.6830200138
  C        -2.5259590572       -1.8657324029        2.0199698413
  C        -2.3698941622       -0.5371020179        2.1049103377
  C         1.7875415311        1.7872443354       -0.2765519593
  C         1.5157795380        1.3346878549       -1.5080076874
  C        -2.8346612614       -1.5097987452       -0.3128949916
  N         3.8660154269        1.4610830922       -1.3474118112
  C         2.7889741355        1.1711249825       -2.2809577657
  O         2.9687589669        0.8161550794       -3.4314678536
  C         3.2671011689        1.9686635156       -0.1220895295
  O         3.9141724421        2.3928768398        0.8167342341
  C         5.2334091451        1.7581760294       -1.7472303935
      24
 i =      17, E =     -144.2017510788
  O        -1.1678252942        0.9352021439       -0.1563435934
  O        -4.0383531802        1.1085585057        0.3004499438
  S        -2.5977123466        0.2474356115        0.3822562884
  H         1.1059288128        2.0033902259        0.5406148385
  H         0.5557425038        1.0891663171       -1.9515071163
  H         5.8797416773        1.6192407599       -0.8730394007
  H         5.5286760904        1.0503853009       -2.5295324862
  H         5.3675744305        2.7807973830       -2.1251764705
 Cl        -3.0171987062       -4.0532545258        0.4653357531
 Cl        -2.4417297324       -2.8942867870        3.3453256651
 Cl        -2.0475455085        0.4434266152        3.3778990198
 Cl        -3.0853112136       -1.6867583032       -1.9284871034
  C        -2.7868939077       -2.4050760054        0.6830960887
  C        -2.5260728641       -1.8657684871        2.0199865225
  C        -2.3701317752       -0.5372800177        2.1048588094
  C         1.7880376375        1.7876928750       -0.2761746887
  C         1.5159233780        1.3347355422       -1.5087011833
  C        -2.8348850818       -1.5098466108       -0.3127656016
  N         3.8659291349        1.4601938172       -1.3470860131
  C         2.7900921036        1.1693938611       -2.2863569174
  O         2.9678131287        0.8179234967       -3.4265246848
  C         3.2701151880        1.9705843354       -0.1175927004
  O         3.9110887242        2.3913088398        0.8128360762
  C         5.2335080548        1.7580499120       -1.7473546185
      24
 i =      18, E =     -144.2019007669
  O        -1.1692390759        0.9370488403       -0.1567448530
  O        -4.0378400166        1.1105290109        0.2998062935
  S        -2.5985153693        0.2482667695        0.3820496075
  H         1.1049974103        2.0035251985        0.5405811114
  H         0.5550082835        1.0893786126       -1.9514973459
  H         5.8814137928        1.6195021340       -0.8736119782
  H         5.5299989068        1.0506734977       -2.5299848431
  H         5.3674014990        2.7808063339       -2.1252871101
 Cl        -3.0165856936       -4.0535207984        0.4665883445
 Cl        -2.4416082011       -2.8953785070        3.3445196238
 Cl        -2.0475881513        0.4421272052        3.3793015313
 Cl        -3.0854699070       -1.6886783261       -1.9284816263
  C        -2.7871001490       -2.4052433606        0.6832259800
  C        -2.5262830872       -1.8659471555        2.0199926379
  C        -2.3705765258       -0.5374552248        2.1048252909