      24
 i =       0, E =     -143.9011388784
  O        -1.8580687805        1.1873049243       -0.1209750460
  O        -3.9585743655        0.6309927261        0.4864759048
  S        -2.6731713461        0.3132568803        0.3771318655
  H         0.7136382084        2.0591184467        0.5612636575
  H         0.1807163376        1.1300139175       -1.9110922693
  H         5.1121626846        0.7981495975       -0.3692926839
  H         4.7709227494        0.2011863899       -2.0356524076
  H         4.8624171651        1.9075368304       -1.6895813568
 Cl        -2.3944156499       -3.7431475770        0.1884243003
 Cl        -1.8111001506       -2.5721200530        3.1196791925
 Cl        -1.8264403708        0.6976245340        3.2410269379
 Cl        -2.8704709896       -1.4229156243       -2.0707503923
  C        -2.3522083552       -2.1234845915        0.4925536170
  C        -2.0931248872       -1.5910608175        1.8227472593
  C        -2.0718889015       -0.2555872040        1.9020946306
  C         1.2800254610        1.5896834436       -0.1060454208
  C         1.0107579884        1.1188788003       -1.3558472697
  C        -2.5262290806       -1.2005507249       -0.4587467363
  N         3.1822237279        0.9539133952       -1.0126613442
  C         2.2320359144        0.7448560286       -1.9915614771
  O         2.4130083145        0.3299870654       -3.1167374262
  C         2.6891879451        1.5460720961        0.1285422822
  O         3.3286457232        1.9244769968        1.0899163714
  C         4.5587324093        0.9680583127       -1.2942846388
      24
 i =       1, E =     -144.0990724797
  O        -1.6856054863        1.3864695491       -0.2322042825
  O        -4.1894407739        0.6927475350        0.5047705714
  S        -2.6474971931        0.1778168018        0.4266392668
  H         0.6739068760        2.0810464374        0.5971787553
  H         0.1316049940        1.1294125086       -1.9328067005
  H         5.1161293647        0.7939230186       -0.3675355950
  H         4.7750145642        0.1954027423       -2.0368416181
  H         4.8686758739        1.9234980699       -1.6966054630
 Cl        -2.3929597685       -3.7538670961        0.1895094588
 Cl        -1.8085800284       -2.5809233161        3.1259360808
 Cl        -1.8253127724        0.6960601145        3.2372190582
 Cl        -2.8677861404       -1.4215765687       -2.0676093533
  C        -2.3473222229       -2.1334341293        0.4892997232
  C        -2.0864998069       -1.5950567038        1.8293857256
  C        -2.0568862532       -0.2833790692        1.9632595188
  C         1.2588378940        1.5730373257       -0.1531961950
  C         1.0089869554        1.1394449531       -1.3055228922
  C        -2.5281563304       -1.2630425276       -0.4869954545
  N         3.2310528906        0.9342955442       -1.0160394865
  C         2.2243858779        0.7251458231       -2.0403504153
  O         2.4178695543        0.3277876406       -3.1194545320
  C         2.6999219180        1.5633506926        0.1769056325
  O         3.3322784151        1.9238538882        1.0910459603
  C         4.5915524826        0.9566822157       -1.2971042086
      24
 i =       2, E =     -144.1302648610
  O        -1.6839692337        1.3936819382       -0.2352769210
  O        -4.2140421702        0.6998614728        0.5067335075
  S        -2.6453571860        0.2415219217        0.4008101043
  H         0.6655423796        2.0803610938        0.5984337523
  H         0.1237949594        1.1292107046       -1.9302902674
  H         5.1216390276        0.7903455447       -0.3643194528
  H         4.7797061735        0.1897146574       -2.0393577121
  H         4.8726799075        1.9273586833       -1.6989859363
 Cl        -2.3912811848       -3.7623532356        0.1914424189
 Cl        -1.8064476213       -2.5886553673        3.1300295435
 Cl        -1.8232600878        0.6985815034        3.2407076258
 Cl        -2.8672759439       -1.4223131533       -2.0724720664
  C        -2.3412438489       -2.1555903502        0.4975020060
  C        -2.0807207389       -1.6180318525        1.8357740495
  C        -2.0530835855       -0.2849079460        1.9827389020
  C         1.2600247425        1.6027416206       -0.0895833434
  C         0.9850072789        1.1214434992       -1.3676741288
  C        -2.5302596541       -1.2779491176       -0.4992142311
  N         3.2235400305        0.9269254760       -1.0119895553
  C         2.2233537677        0.7385902023       -1.9980789784
  O         2.4240172669        0.3119977544       -3.1599174825
  C         2.6826457556        1.5474916240        0.1421009873
  O         3.3525462764        1.9361605680        1.1243380779
  C         4.6112750907        0.9583991504       -1.3019548417
      24
 i =       3, E =     -144.1523618894
  O        -1.6770735984        1.4069625499       -0.2417329120
  O        -4.2309852486        0.7046569395        0.5081532026
  S        -2.6480363909        0.2693668727        0.3901578610
  H         0.6514123104        2.0865930504        0.6095493844
  H         0.1066642676        1.1287772918       -1.9366061600
  H         5.1258080318        0.7875059058       -0.3620464319
  H         4.7833264824        0.1854150314       -2.0410228316
  H         4.8758125444        1.9304154544       -1.7008443735
 Cl        -2.3897583309       -3.7712549827        0.1926618665
 Cl        -1.8042044039       -2.5961229281        3.1347429697
 Cl        -1.8214093413        0.7008781853        3.2447570214
 Cl        -2.8670911391       -1.4235132702       -2.0772871415
  C        -2.3384991172       -2.1600632984        0.4961791078
  C        -2.0772541141       -1.6203165054        1.8383641363
  C        -2.0527761777       -0.2957893515        1.9872064137
  C         1.2496732844        1.5927940000       -0.1206200890
  C         0.9888239831        1.1349882965       -1.3359944801
  C        -2.5299041693       -1.2886522566       -0.4951453361
  N         3.2282627428        0.9206060478       -1.0102249426
  C         2.2304773214        0.7232405649       -2.0350834654
  O         2.4202569426        0.3203042404       -3.1346886614
  C         2.7031541563        1.5574973271        0.1720873332
  O         3.3389832314        1.9276606569        1.1050919784
  C         4.6172440312        0.9580776111       -1.3032598464
      24
 i =       4, E =     -144.1603201168
  O        -1.6663022433        1.4281578325       -0.2519693230
  O        -4.2531107950        0.7109985943        0.5100368025
  S        -2.6543547720        0.3024578188        0.3780689123
  H         0.6390262806        2.0881561740        0.6146021075
  H         0.0942457953        1.1283860443       -1.9363679309
  H         5.1321541179        0.7832263565       -0.3597493952
  H         4.7891936455        0.1796342153       -2.0427408241
  H         4.8806837474        1.9337402105       -1.7032399108
 Cl        -2.3871179284       -3.7843713714        0.1948652410
 Cl        -1.8006893428       -2.6073053956        3.1411508093
 Cl        -1.8188066901        0.7027532915        3.2494987707
 Cl        -2.8663296033       -1.4255223798       -2.0826079831
  C        -2.3335511162       -2.1687470956        0.4990112500
  C        -2.0725279198       -1.6293546453        1.8403150505
  C        -2.0533323896       -0.3024702742        1.9914743303
  C         1.2465164486        1.6020777402       -0.1091867865
  C         0.9815403177        1.1350857072       -1.3484655933
  C        -2.5307401542       -1.2963630089       -0.4931213632
  N         3.2335779082        0.9112298297       -1.0078897239
  C         2.2250042927        0.7323749174       -2.0056137113
  O         2.4246798670        0.3090220423       -3.1607320167
  C         2.6864751585        1.5468705596        0.1495404195
  O         3.3520810652        1.9347921432        1.1271952518
  C         4.6242227384        0.9572186486       -1.3046064982
      24
 i =       5, E =     -144.1686954712
  O        -1.6607061539        1.4402046468       -0.2576605199
  O        -4.2636017497        0.7142013257        0.5108905769
  S        -2.6586924798        0.3162511355        0.3733202704
  H         0.6315999418        2.0894990656        0.6182443911
  H         0.0865673065        1.1280481908       -1.9369593373
  H         5.1355045788        0.7809192127       -0.3591040858
  H         4.7925350161        0.1768295172       -2.0432199210
  H         4.8832819355        1.9347284058       -1.7041847054
 Cl        -2.3853705592       -3.7914560811        0.1962712724
 Cl        -1.7985602171       -2.6135449214        3.1443841484
 Cl        -1.8174293453        0.7029178761        3.2514961066
 Cl        -2.8656253382       -1.4268279900       -2.0845024518
  C        -2.3310849690       -2.1722545468        0.4995545623
  C        -2.0700072395       -1.6324218017        1.8413228565
  C        -2.0543483964       -0.3055645652        1.9917816266
  C         1.2401892680        1.6028139923       -0.1149842192
  C         0.9780866003        1.1401856421       -1.3425069386
  C        -2.5313534446       -1.2985944542       -0.4910072265
  N         3.2351715496        0.9058665848       -1.0060683720
  C         2.2299543276        0.7211257551       -2.0324962770
  O         2.4206756468        0.3161208551       -3.1385374729
  C         2.7012159536        1.5543623168        0.1719896548
  O         3.3392484485        1.9270742335        1.1101925060
  C         4.6285276763        0.9563612714       -1.3054409909
      24
 i =       6, E =     -144.1729078760
  O        -1.6536278354        1.4578171594       -0.2657549242
  O        -4.2783796156        0.7188736138        0.5120617695
  S        -2.6651068873        0.3357803689        0.3666222886
  H         0.6212296500        2.0903180817        0.6217797416
  H         0.0765669576        1.1277410920       -1.9361088059
  H         5.1408587967        0.7772584672       -0.3586149600
  H         4.7980342952        0.1726881523       -2.0436275168
  H         4.8874422086        1.9355439874       -1.7054365301
 Cl        -2.3823764574       -3.8017606376        0.1985738068
 Cl        -1.7951388021       -2.6228079907        3.1487241997
 Cl        -1.8153666601        0.7025044155        3.2539631737
 Cl        -2.8643071345       -1.4289474106       -2.0866148309
  C        -2.3273051336       -2.1772318399        0.5004073149
  C        -2.0661777757       -1.6371536425        1.8426359651
  C        -2.0562489975       -0.3090012726        1.9914353267
  C         1.2383116149        1.6074822086       -0.1136837293
  C         0.9758981150        1.1430605941       -1.3456694991
  C        -2.5325031602       -1.3005217909       -0.4877427258
  N         3.2371631194        0.8975803146       -1.0033601868
  C         2.2247337991        0.7283208704       -2.0094428762
  O         2.4232897781        0.3079518992       -3.1556104644
  C         2.6869926138        1.5461570081        0.1544037309
  O         3.3475176528        1.9313718685        1.1255900546
  C         4.6326477265        0.9548697797       -1.3060643027
      24
 i =       7, E =     -144.1779383924
  O        -1.6515892920        1.4644930167       -0.2686835627
  O        -4.2836539178        0.7207030492        0.5124302008
  S        -2.6675407605        0.3426736401        0.3643022383
  H         0.6174237754        2.0903672141        0.6228167807
  H         0.0730448837        1.1275922724       -1.9354869607
  H         5.1429752398        0.7757864396       -0.3586522132
  H         4.8002828543        0.1711750395       -2.0436133779
  H         4.8890299926        1.9354719399       -1.7057936537
 Cl        -2.3809968255       -3.8055270302        0.1995926555
 Cl        -1.7936782796       -2.6263651192        3.1501190148
 Cl        -1.8145808869        0.7019516597        3.2545979680
 Cl        -2.8636328547       -1.4298431585       -2.0869246932
  C        -2.3258380166       -2.1789001446        0.5006627193
  C        -2.0647062340       -1.6386764980        1.8430138189
  C        -2.0571853583       -0.3100719904        1.9909607565
  C         1.2350906767        1.6094609150       -0.1139174935
  C         0.9730389117        1.1451253552       -1.3455570890
  C        -2.5330926611       -1.3007972011       -0.4864389869
  N         3.2378993287        0.8940991480       -1.0021120866
  C         2.2270386454        0.7224051658       -2.0233749554
  O         2.4208059527        0.3118010442       -3.1429588182
  C         2.6944609520        1.5500319107        0.1662137938
  O         3.3399549292        1.9268395703        1.1160526304
  C         4.6343811284        0.9540852703       -1.3062307349
      24
 i =       8, E =     -144.1882760702
  O        -1.6287726526        1.5548734545       -0.3073809312
  O        -4.3531636964        0.7460666194        0.5169516682
  S        -2.7003855873        0.4341336964        0.3336809626
  H         0.5630101338        2.0909548797        0.6364342626
  H         0.0230117371        1.1261248149       -1.9258622481
  H         5.1733520038        0.7548379795       -0.3604544383
  H         4.8328480595        0.1505197232       -2.0424672247
  H         4.9116168264        1.9322878803       -1.7101443327
 Cl        -2.3606326230       -3.8554551058        0.2141982115
 Cl        -1.7727808992       -2.6744204822        3.1671274292
 Cl        -1.8038091333        0.6924654229        3.2617241121
 Cl        -2.8535907289       -1.4424833951       -2.0890305644
  C        -2.3057491099       -2.2000682748        0.5035379983
  C        -2.0445067897       -1.6586366437        1.8476201683
  C        -2.0708556184       -0.3232339242        1.9830243785
  C         1.2140724881        1.6330805290       -0.1199419393
  C         0.9561723690        1.1691657552       -1.3489525320
  C        -2.5416456766       -1.3027933631       -0.4678503704
  N         3.2445607421        0.8454694828       -0.9846918856
  C         2.2158779717        0.7227171066       -2.0004512837
  O         2.4169571873        0.3000758548       -3.1416678581
  C         2.6733016222        1.5374944220        0.1545676400
  O         3.3313435033        1.9190231344        1.1256128839
  C         4.6519718925        0.9426349388       -1.3070245940
      24
 i =       9, E =     -144.1909039454
  O        -1.6326700087        1.5557448376       -0.3069276499
  O        -4.3518404135        0.7468926417        0.5164758437
  S        -2.7012480148        0.4342089567        0.3338510699
  H         0.5625943335        2.0897303074        0.6346628511
  H         0.0235345923        1.1263054947       -1.9238914879
  H         5.1746034432        0.7540228464       -0.3614959157
  H         4.8344408754        0.1503988275       -2.0416989700
  H         4.9121675231        1.9304360001       -1.7096956693
 Cl        -2.3590324967       -3.8550930407        0.2151577034
 Cl        -1.7716735444       -2.6749764006        3.1657140666
 Cl        -1.8036398214        0.6905567500        3.2606410567
 Cl        -2.8527536266       -1.4431751903       -2.0871500172
  C        -2.3055099211       -2.1991813381        0.5031725632
  C        -2.0442639661       -1.6578937714        1.8472533292
  C        -2.0717196644       -0.3228921351        1.9817216099
  C         1.2120687655        1.6356243793       -0.1170080024
  C         0.9528179103        1.1695219200       -1.3518944321
  C        -2.5421311654       -1.3016152448       -0.4668880778
  N         3.2437537984        0.8434768211       -0.9837714127
  C         2.2180841016        0.7176473714       -2.0126601490
  O         2.4141911335        0.3038100757       -3.1296408765
  C         2.6802280580        1.5412269310        0.1653683142
  O         3.3237059330        1.9146592079        1.1162719852
  C         4.6513387931        0.9414293209       -1.3064848050
      24
 i =      10, E =     -144.1922455052
  O        -1.6584472856        1.5629661074       -0.3044525087
  O        -4.3450606954        0.7532652604        0.5133808611
  S        -2.7064944360        0.4341409887        0.3351734936
  H         0.5558605858        2.0839389264        0.6266269418
  H         0.0216055988        1.1274595103       -1.9135404527
  H         5.1838184793        0.7484120612       -0.3682899460
  H         4.8458330269        0.1492126841       -2.0369489215
  H         4.9161815913        1.9182378985       -1.7068538441
 Cl        -2.3480452004       -3.8524836426        0.2217788274
 Cl        -1.7641131399       -2.6786806180        3.1558651047
 Cl        -1.8024314100        0.6779474558        3.2538339515
 Cl        -2.8472320286       -1.4479734477       -2.0749968945
  C        -2.3037232800       -2.1941258703        0.5021347449
  C        -2.0427837856       -1.6542447567        1.8444787480
  C        -2.0774752473       -0.3202902560        1.9735187098
  C         1.2075687494        1.6423285701       -0.1193765149
  C         0.9482465458        1.1767183675       -1.3531979063
  C        -2.5456104424       -1.2937286022       -0.4613312520
  N         3.2386815299        0.8298666439       -0.9774121673
  C         2.2121926663        0.7209517998       -1.9987273309
  O         2.4106522555        0.2987326166       -3.1293778589
  C         2.6682684134        1.5362041187        0.1566467696
  O         3.3194063244        1.9117856549        1.1217134590
  C         4.6456424861        0.9336701513       -1.3026803221
      24
 i =      11, E =     -144.1931971971
  O        -1.6608336223        1.5650741803       -0.3047677617
  O        -4.3461556560        0.7547833546        0.5130751874
  S        -2.7068288475        0.4336107599        0.3354839005
  H         0.5542718304        2.0838126401        0.6264985382
  H         0.0202441790        1.1276115132       -1.9129826929
  H         5.1852740332        0.7477444122       -0.3687476782
  H         4.8473778702        0.1487882143       -2.0368058126
  H         4.9165638662        1.9171973874       -1.7066691594
 Cl        -2.3466185438       -3.8519906783        0.2226706725
 Cl        -1.7631665447       -2.6790871843        3.1544685357
 Cl        -1.8022301895        0.6768127802        3.2535877925
 Cl        -2.8467259902       -1.4486714360       -2.0741089866
  C        -2.3035341402       -2.1941972855        0.5026504060
  C        -2.0427455479       -1.6545413785        1.8441801829
  C        -2.0780245845       -0.3202948090        1.9731381965
  C         1.2068598686        1.6429609413       -0.1202722133
  C         0.9481043238        1.1777902668       -1.3528281491
  C        -2.5460868817       -1.2932768402       -0.4611103548
  N         3.2381999895        0.8281500944       -0.9764959201
  C         2.2131927951        0.7174028146       -2.0074521884
  O         2.4088361025        0.3012303409       -3.1213584798
  C         2.6729375316        1.5388923631        0.1644079321
  O         3.3142794334        1.9088968400        1.1155226999
  C         4.6458193170        0.9328952345       -1.3023914500
      24
 i =      12, E =     -144.1935061631
  O        -1.6639249503        1.5676053971       -0.3050994876
  O        -4.3473270525        0.7566605795        0.5126661333
  S        -2.7074337696        0.4332221336        0.3358128448
  H         0.5523547218        2.0835815683        0.6261709412
  H         0.0187147722        1.1278470664       -1.9121265964
  H         5.1871650884        0.7469308938       -0.3693492522
  H         4.8493714443        0.1482986837       -2.0366300774
  H         4.9170806468        1.9159528447       -1.7064668884
 Cl        -2.3448353332       -3.8514706383        0.2237847206
 Cl        -1.7619718869       -2.6796549365        3.1527832889
 Cl        -1.8019787688        0.6754115640        3.2533407038
 Cl        -2.8461216026       -1.4495710811       -2.0730849292
  C        -2.3034031446       -2.1940853950        0.5029553828
  C        -2.0427037081       -1.6547357893        1.8439314544
  C        -2.0787131871       -0.3204616973        1.9726533400
  C         1.2069567266        1.6438351257       -0.1208819436
  C         0.9484558136        1.1787629558       -1.3531212553
  C        -2.5466164797       -1.2929758989       -0.4605613673
  N         3.2378801578        0.8260152481       -0.9754813768
  C         2.2121262120        0.7180845346       -2.0050865457
  O         2.4085892636        0.3001682035       -3.1224884861
  C         2.6710363484        1.5380472460        0.1627872127
  O         3.3143255533        1.9089482654        1.1172509663
  C         4.6457176833        0.9318946713       -1.3019782952
      24
 i =      13, E =     -144.1951639435
  O        -1.7011933720        1.5959598598       -0.3082328620
  O        -4.3587258292        0.7784554643        0.5075668072
  S        -2.7169819481        0.4318539026        0.3387535197
  H         0.5319857119        2.0799356112        0.6203093218
  H         0.0038678502        1.1308932114       -1.9007581944
  H         5.2094829318        0.7378236206       -0.3765127145
  H         4.8727340711        0.1430857288       -2.0346596871
  H         4.9228393219        1.9020285642       -1.7042680457
 Cl        -2.3239662899       -3.8464512393        0.2368026975
 Cl        -1.7478157504       -2.6871768944        3.1339227672
 Cl        -1.7990877393        0.6592404561        3.2511430413
 Cl        -2.8393835568       -1.4604067868       -2.0619512108
  C        -2.3025335886       -2.1927940937        0.5050432864
  C        -2.0424492006       -1.6560981129        1.8418460566
  C        -2.0867316511       -0.3229380763        1.9676653829
  C         1.2034274955        1.6568158089       -0.1232523152
  C         0.9450806239        1.1900769978       -1.3598393964
  C        -2.5527632915       -1.2904753741       -0.4535274295
  N         3.2346783828        0.8013591572       -0.9641921130
  C         2.2085014367        0.7137011130       -2.0084408717
  O         2.4012298286        0.2976682988       -3.1102981212
  C         2.6689946612        1.5376852239        0.1698895363
  O         3.3002492468        1.9014574107        1.1156126823
  C         4.6455644195        0.9198722462       -1.2974830352
      24
 i =      14, E =     -144.1961350273
  O        -1.7032689737        1.5964985606       -0.3079933685
  O        -4.3583515189        0.7793948130        0.5071990247
  S        -2.7182383537        0.4330755026        0.3384956619
  H         0.5315337731        2.0798326625        0.6198486015
  H         0.0036863664        1.1311423498       -1.9003395253
  H         5.2105467317        0.7377260453       -0.3769100457
  H         4.8737685966        0.1431511660       -2.0347051769
  H         4.9229388697        1.9018244100       -1.7042814609
 Cl        -2.3231648198       -3.8468951943        0.2372901412
 Cl        -1.7471715392       -2.6879834929        3.1336969614
 Cl        -1.7990085905        0.6587579451        3.2515136047
 Cl        -2.8393228717       -1.4610158033       -2.0619827142
  C        -2.3027018864       -2.1931612832        0.5051478316
  C        -2.0426384875       -1.6561834077        1.8419385675
  C        -2.0871117458       -0.3228198755        1.9678919459
  C         1.2033178244        1.6565303285       -0.1252789928
  C         0.9456476378        1.1911920249       -1.3582158705
  C        -2.5532167304       -1.2903886189       -0.4535914617
  N         3.2350571382        0.8007269921       -0.9640805816
  C         2.2072955580        0.7169290254       -1.9998425762
  O         2.4025994533        0.2947713483       -3.1177181834
  C         2.6641750683        1.5349233807        0.1626252603
  O         3.3044035653        1.9038311594        1.1220512267
  C         4.6458475283        0.9194187255       -1.2974332679
      24
 i =      15, E =     -144.1961942140
  O        -1.7084011106        1.5983038679       -0.3075796614
  O        -4.3580481311        0.7820228348        0.5062949569
  S        -2.7211155321        0.4354598351        0.3380415505
  H         0.5307666005        2.0793846712        0.6182924046
  H         0.0037361216        1.1318227929       -1.8990406565
  H         5.2132688140        0.7374583667       -0.3778672257
  H         4.8764014848        0.1432339169       -2.0348867197
  H         4.9231007050        1.9012389198       -1.7042790378
 Cl        -2.3210533191       -3.8479812915        0.2385588533
 Cl        -1.7454850855       -2.6900201751        3.1330357632
 Cl        -1.7988060264        0.6575133903        3.2524875830
 Cl        -2.8391619203       -1.4626012308       -2.0620339582
  C        -2.3032126660       -2.1937098213        0.5051941944
  C        -2.0431626474       -1.6562148107        1.8421066027
  C        -2.0881412701       -0.3227708591        1.9684336230
  C         1.2019350390        1.6578057623       -0.1260124107
  C         0.9443896411        1.1928548082       -1.3580233964
  C        -2.5543577583       -1.2904296393       -0.4534224133
  N         3.2356925717        0.7991449130       -0.9636622012
  C         2.2091249914        0.7149517859       -2.0040767768
  O         2.4019311282        0.2960315172       -3.1139483610
  C         2.6672088027        1.5360801323        0.1664089824
  O         3.3019154914        1.9025533605        1.1191982065
  C         4.6470811120        0.9183641835       -1.2973974080
      24
 i =      16, E =     -144.1971141112
  O        -1.7187967957        1.6028545755       -0.3070847268
  O        -4.3587529459        0.7879808442        0.5044715733
  S        -2.7264637549        0.4390802004        0.3375540236
  H         0.5286146059        2.0787901577        0.6154866399
  H         0.0031355207        1.1332955262       -1.8966719610
  H         5.2192035906        0.7368875807       -0.3798774269
  H         4.8821647692        0.1432644687       -2.0354109823
  H         4.9235304058        1.8999789819       -1.7042475810
 Cl        -2.3165242046       -3.8501847952        0.2412773828
 Cl        -1.7419180780       -2.6941836824        3.1314018003
 Cl        -1.7983894622        0.6548848437        3.2546357440
 Cl        -2.8388345639       -1.4659955604       -2.0620790564
  C        -2.3043739914       -2.1942821666        0.5052835220
  C        -2.0443368221       -1.6562789439        1.8423616937
  C        -2.0904802125       -0.3229622986        1.9694252532
  C         1.2016456482        1.6600242488       -0.1276431610
  C         0.9445012603        1.1956146479       -1.3582937471
  C        -2.5568266199       -1.2908142396       -0.4527860967
  N         3.2373744809        0.7958265516       -0.9626967897
  C         2.2090296106        0.7173570939       -1.9968104399
  O         2.4030135809        0.2935654637       -3.1194546290
  C         2.6635960944        1.5336320612        0.1606263940
  O         3.3044077417        1.9042110031        1.1246199619
  C         4.6491425969        0.9164541944       -1.2973134522
      24
 i =      17, E =     -144.1973823831
  O        -1.7203228682        1.6041897534       -0.3072601200
  O        -4.3598340715        0.7893389009        0.5042115255
  S        -2.7269022443        0.4386194669        0.3378307470
  H         0.5281010375        2.0788654256        0.6151889110
  H         0.0028514450        1.1335843942       -1.8964544943
  H         5.2203276133        0.7368009446       -0.3802056677
  H         4.8832492657        0.1431974567       -2.0356086031
  H         4.9235956059        1.8997709691       -1.7042423753
 Cl        -2.3156663339       -3.8504119237        0.2418019993
 Cl        -1.7412952743       -2.6947626910        3.1308678058
 Cl        -1.7983412458        0.6543890901        3.2550662822
 Cl        -2.8387903566       -1.4666308887       -2.0620005546
  C        -2.3046101582       -2.1941762440        0.5054247347
  C        -2.0445903295       -1.6564029660        1.8423891369
  C        -2.0910449257       -0.3231094489        1.9694953671
  C         1.2019751689        1.6605894455       -0.1272828947
  C         0.9447149619        1.1957174571       -1.3591118903
  C        -2.5573768625       -1.2909529134       -0.4526275810
  N         3.2374885278        0.7953210546       -0.9624805157
  C         2.2098796574        0.7155184892       -2.0015569742
  O         2.4023196058        0.2951843781       -3.1150718844
  C         2.6664093226        1.5351964597        0.1648504309
  O         3.3017900246        1.9027571534        1.1209553184
  C         4.6496118575        0.9163123131       -1.2973445680
      24
 i =      18, E =     -144.1974848954
  O        -1.7236469991        1.6066934686       -0.3074899158
  O        -4.3616580319        0.7920456818        0.5036368108
  S        -2.7280164120        0.4380340655        0.3382934664
  H         0.5270220183        2.0790282658        0.6145707919
  H         0.0022541719        1.1341872050       -1.8960083552
  H         5.2226389345        0.7366479797       -0.3809241807
  H         4.8854856459        0.1431347801       -2.0359713372
  H         4.9237885186        1.8994200222       -1.7042688787
 Cl        -2.3139176537       -3.8508311304        0.2428758292
 Cl        -1.7400271275       -2.6959413575        3.1297771974
 Cl        -1.7982650731        0.6533476420        3.2559178188
 Cl        -2.8387145068       -1.4679368188       -2.0618392072
  C        -2.3050952346       -2.1941670317        0.5057084577
  C        -2.0451026170       -1.6566588777        1.8425267712
  C        -2.0921914354       -0.3233824000        1.9696946435