      24
 i =       0, E =     -144.1512706832
  O        -3.0154898199        2.1663598532       -0.2727302012
  O        -4.2573749399       -0.0444578264        0.8422245061
  S        -2.8598089377        0.6353938025        0.3000238852
  H        -0.2773276735        2.1517424237        0.5701506428
  H        -0.7281303985        1.2448232247       -1.7312288997
  H         3.7647897349       -0.5358950154        0.4363053582
  H         3.1939270315       -1.6404241792       -0.4743877213
  H         3.7353792403       -0.3415323231       -1.0935514710
 Cl        -1.1520381673       -3.1995252637       -0.2792311594
 Cl        -0.5759764002       -2.0408013158        2.6622477561
 Cl        -1.2430947514        1.0876666366        2.9977520632
 Cl        -2.2911606296       -1.0199222035       -2.3518777191
  C        -1.3173113811       -1.5943423171        0.1102141529
  C        -1.0657801203       -1.0886360230        1.3938920494
  C        -1.2281381031        0.2928343293        1.5233596994
  C        -0.0238259146        1.1223997857        0.3566628439
  C        -0.2877404599        0.5915218113       -0.9909055731
  C        -1.6904598435       -0.6366363715       -0.8357815665
  N         1.8749853905       -0.1197485203       -0.3296507573
  C         0.9429359038       -0.1772950442       -1.4172455836
  O         1.1576646547       -0.7510187385       -2.4575100092
  C         1.3671070632        0.6760503007        0.7486653528
  O         1.9835149386        0.9105226912        1.7597515021
  C         3.2116240770       -0.6867240412       -0.3681543400
      24
 i =       1, E =     -144.2115575315
  O        -3.0128100985        2.1708389552       -0.2750054677
  O        -4.2621469514       -0.0419137880        0.8421833611
  S        -2.8574383599        0.6310072819        0.3012580833
  H        -0.2767651579        2.1631226720        0.5707466465
  H        -0.7291680614        1.2527161434       -1.7396055886
  H         3.7940212134       -0.5294668885        0.5142724921
  H         3.1830543863       -1.7432618898       -0.5001922505
  H         3.7867767424       -0.2882143483       -1.1662990648
 Cl        -1.1486500130       -3.2051692896       -0.2790624141
 Cl        -0.5723211427       -2.0449187982        2.6641827988
 Cl        -1.2454904447        1.0873117232        2.9988519192
 Cl        -2.2938409707       -1.0206938861       -2.3515384822
  C        -1.3107535365       -1.6003446898        0.1398053387
  C        -1.0680677590       -1.1147411931        1.3769934382
  C        -1.2124052834        0.3293860018        1.4998415557
  C        -0.0481073988        1.1045540239        0.3898741832
  C        -0.3196265301        0.5595634818       -0.9935176429
  C        -1.6724727968       -0.5967708419       -0.8495527014
  N         1.8745872511       -0.1279138252       -0.3245763983
  C         0.9419447898       -0.1760065630       -1.4198814713
  O         1.1588642742       -0.7521973853       -2.4600963966
  C         1.3670477404        0.6808134350        0.7538268687
  O         1.9840582755        0.9110368795        1.7598741561
  C         3.1489567031       -0.6541477698       -0.3488782282
      24
 i =       2, E =     -144.2290952439
  O        -3.0107304903        2.1727443645       -0.2761634389
  O        -4.2651076438       -0.0412860157        0.8425488809
  S        -2.8546832921        0.6303425135        0.3009745064
  H        -0.2753267355        2.1659840441        0.5697170595
  H        -0.7277705198        1.2552684902       -1.7414816477
  H         3.7889027023       -0.5337198041        0.5263072369
  H         3.1800861542       -1.7455464154       -0.5093498576
  H         3.7868499625       -0.2787607800       -1.1630884694
 Cl        -1.1467749253       -3.2071736036       -0.2795833597
 Cl        -0.5701191194       -2.0461986647        2.6652508032
 Cl        -1.2469794470        1.0866337594        2.9989431669
 Cl        -2.2952477344       -1.0211441401       -2.3506651577
  C        -1.3134966386       -1.6012092353        0.1297363219
  C        -1.0671932485       -1.1081734779        1.3854569124
  C        -1.2003335726        0.3361436660        1.4818347584
  C        -0.0653323487        1.0936045429        0.4059468922
  C        -0.3392889425        0.5429180424       -0.9911220306
  C        -1.6560774806       -0.5814141914       -0.8461728612
  N         1.8466913641       -0.1204099881       -0.3198492067
  C         0.9388743318       -0.1767322072       -1.4215344125
  O         1.1596528565       -0.7514573387       -2.4599300231
  C         1.3613278337        0.6820676270        0.7539467923
  O         1.9863808792        0.9125714689        1.7627472169
  C         3.1885784812       -0.6758883820       -0.3577905063
      24
 i =       3, E =     -144.2369127351
  O        -3.0086291541        2.1734212873       -0.2768458293
  O        -4.2665942852       -0.0399502523        0.8423473253
  S        -2.8540205894        0.6309462306        0.3005910572
  H        -0.2744180018        2.1667419584        0.5689562620
  H        -0.7266268345        1.2560668883       -1.7418610272
  H         3.7854725167       -0.5397700341        0.5365699956
  H         3.1789381132       -1.7507491846       -0.5191024617
  H         3.7899436598       -0.2693333888       -1.1616391401
 Cl        -1.1449337244       -3.2080118501       -0.2801024881
 Cl        -0.5681032195       -2.0466109491        2.6655715517
 Cl        -1.2484415845        1.0861325163        2.9981742886
 Cl        -2.2963649427       -1.0209031421       -2.3493542628
  C        -1.3132563993       -1.5989065273        0.1317559828
  C        -1.0678936738       -1.1077830664        1.3826041751
  C        -1.1914216823        0.3423416938        1.4712545872
  C        -0.0786365640        1.0864078367        0.4163413305
  C        -0.3540006083        0.5322517557       -0.9891984299
  C        -1.6449152677       -0.5710457688       -0.8461690227
  N         1.8510113762       -0.1272620706       -0.3178975152
  C         0.9333983919       -0.1765477192       -1.4212665321
  O         1.1607857212       -0.7513841778       -2.4609599158
  C         1.3574342628        0.6841805207        0.7592464217
  O         1.9860048279        0.9130419010        1.7610563919
  C         3.1913501253       -0.6798747078       -0.3600047513
      24
 i =       4, E =     -144.2458664849
  O        -3.0056955685        2.1743560284       -0.2777900361
  O        -4.2681558652       -0.0378825218        0.8418903478
  S        -2.8536133526        0.6322448058        0.2999604973
  H        -0.2732304964        2.1667793377        0.5674998812
  H        -0.7248316986        1.2566651419       -1.7414381142
  H         3.7791272273       -0.5494630103        0.5492916498
  H         3.1776125495       -1.7574342088       -0.5334313219
  H         3.7942387302       -0.2561339207       -1.1585436573
 Cl        -1.1425761437       -3.2082758087       -0.2808654397
 Cl        -0.5655897098       -2.0464581402        2.6655328684
 Cl        -1.2504258795        1.0851756927        2.9964039792
 Cl        -2.2976197277       -1.0203216190       -2.3469119016
  C        -1.3128354866       -1.5966129758        0.1316749099
  C        -1.0677114942       -1.1060562380        1.3811284442
  C        -1.1780774959        0.3512903076        1.4571859228
  C        -0.0970496173        1.0756362122        0.4307556349
  C        -0.3740789596        0.5170318976       -0.9856961369
  C        -1.6287269982       -0.5569664630       -0.8470725984
  N         1.8504443772       -0.1337852839       -0.3145542422
  C         0.9281585701       -0.1786205858       -1.4206898929
  O         1.1613168678       -0.7493016058       -2.4597762357
  C         1.3506262597        0.6831393025        0.7603198493
  O         1.9871543366        0.9150503309        1.7621505900
  C         3.1971574622       -0.6854937579       -0.3617464703
      24
 i =       5, E =     -144.2496382368
  O        -3.0043397561        2.1748335633       -0.2782340332
  O        -4.2685127529       -0.0367800689        0.8415589716
  S        -2.8537049297        0.6333188481        0.2995121722
  H        -0.2726276924        2.1658006681        0.5663910844
  H        -0.7236101567        1.2564402445       -1.7403090788
  H         3.7752998195       -0.5547750817        0.5549781439
  H         3.1771262750       -1.7603412852       -0.5409843993
  H         3.7963879401       -0.2494832116       -1.1564930947
 Cl        -1.1417743533       -3.2078692174       -0.2813144642
 Cl        -0.5647339578       -2.0458793771        2.6653338974
 Cl        -1.2513031349        1.0845564896        2.9950419222
 Cl        -2.2979617570       -1.0198302220       -2.3453042575
  C        -1.3121058602       -1.5951346994        0.1312482725
  C        -1.0670448556       -1.1047678068        1.3802621790
  C        -1.1708659668        0.3555260050        1.4511421519
  C        -0.1057821123        1.0699776293        0.4375187985
  C        -0.3836466207        0.5094748000       -0.9837576650
  C        -1.6203609965       -0.5508611943       -0.8482311918
  N         1.8489137338       -0.1364872619       -0.3131811852
  C         0.9253147736       -0.1796405258       -1.4181688337
  O         1.1616030215       -0.7482258790       -2.4598746280
  C         1.3488032847        0.6820859021        0.7632445464
  O         1.9856822121        0.9158004300        1.7597182404
  C         3.1994311905       -0.6877653132       -0.3621146194
      24
 i =       6, E =     -144.2541136725
  O        -3.0026041220        2.1756095730       -0.2788694786
  O        -4.2686615561       -0.0352105347        0.8410083411
  S        -2.8540004010        0.6350805288        0.2988150452
  H        -0.2717232558        2.1636052318        0.5644046151
  H        -0.7215997826        1.2557957567       -1.7379408305
  H         3.7695786477       -0.5622975369        0.5628103947
  H         3.1764851481       -1.7641484538       -0.5517905254
  H         3.7993878505       -0.2400984217       -1.1534290124
 Cl        -1.1411207016       -3.2069264136       -0.2820142761
 Cl        -0.5639907045       -2.0446959571        2.6650296238
 Cl        -1.2523734593        1.0835988375        2.9928308984
 Cl        -2.2981692241       -1.0190393723       -2.3428443680
  C        -1.3105220529       -1.5927106928        0.1303566248
  C        -1.0655804769       -1.1025376938        1.3787837322
  C        -1.1602331769        0.3611445473        1.4433723227
  C        -0.1176692426        1.0618752591        0.4469384881
  C        -0.3964667179        0.4988152581       -0.9806879391
  C        -1.6083733267       -0.5430407138       -0.8502600957
  N         1.8467794999       -0.1399328553       -0.3109549693
  C         0.9212870004       -0.1825751033       -1.4161370495
  O         1.1614566703       -0.7452434189       -2.4579743132
  C         1.3433479939        0.6790673094        0.7636335245
  O         1.9855376479        0.9179578692        1.7594206816
  C         3.2017757502       -0.6905813886       -0.3627134733
      24
 i =       7, E =     -144.2553736128
  O        -3.0022169380        2.1759346511       -0.2790663678
  O        -4.2684492380       -0.0346999978        0.8407774270
  S        -2.8541316091        0.6358561428        0.2985072661
  H        -0.2713611325        2.1623245075        0.5633961645
  H        -0.7206535321        1.2553798725       -1.7365624261
  H         3.7674299644       -0.5646859475        0.5653670786
  H         3.1762165078       -1.7653340019       -0.5554599033
  H         3.8003657963       -0.2369293785       -1.1524564902
 Cl        -1.1413086904       -3.2063806363       -0.2822996740
 Cl        -0.5641346564       -2.0440394512        2.6649484760
 Cl        -1.2525797623        1.0831992909        2.9918898523
 Cl        -2.2980145814       -1.0187200590       -2.3418849116
  C        -1.3095519046       -1.5916815144        0.1298747465
  C        -1.0646570659       -1.1015648549        1.3781153188
  C        -1.1563861218        0.3628271160        1.4412842086
  C        -0.1214247921        1.0590058604        0.4499059804
  C        -0.4005176282        0.4952135291       -0.9795870541
  C        -1.6042004642       -0.5409382341       -0.8512348290
  N         1.8459094789       -0.1408777871       -0.3103777693
  C         0.9194537718       -0.1834239905       -1.4142838166
  O         1.1615001638       -0.7443264574       -2.4579706298
  C         1.3420582149        0.6779652823        0.7651720889
  O         1.9844910143        0.9186261840        1.7579060582
  C         3.2022289927       -0.6913221357       -0.3629360168
      24
 i =       8, E =     -144.2558964872
  O        -2.9985550103        2.1805792272       -0.2814908916
  O        -4.2640912894       -0.0283111516        0.8375555798
  S        -2.8560028640        0.6467364644        0.2941748526
  H        -0.2662787603        2.1430906601        0.5481525011
  H        -0.7068675197        1.2493999273       -1.7157948306
  H         3.7384337871       -0.5938130811        0.5978574691
  H         3.1721317384       -1.7800502405       -0.6023960801
  H         3.8124995728       -0.1962475150       -1.1407700733
 Cl        -1.1464607944       -3.1983933779       -0.2862914840
 Cl        -0.5686077633       -2.0342211034        2.6643012392
 Cl        -1.2541104074        1.0777367683        2.9790499332
 Cl        -2.2946082418       -1.0144666140       -2.3291438834
  C        -1.2943797136       -1.5773723445        0.1225604431
  C        -1.0500536011       -1.0880327968        1.3688886623
  C        -1.1056333203        0.3830904330        1.4169388380
  C        -0.1682294573        1.0215013563        0.4876715317
  C        -0.4506219978        0.4487081699       -0.9639484307
  C        -1.5500382785       -0.5168673176       -0.8652558104
  N         1.8344769357       -0.1513818542       -0.3025764689
  C         0.8959855087       -0.1997399314       -1.3964858002
  O         1.1599733447       -0.7270754510       -2.4504327351
  C         1.3159494443        0.6594317954        0.7743556769
  O         1.9769826996        0.9311237653        1.7481557315
  C         3.2072140974       -0.7002854392       -0.3666222436
      24
 i =       9, E =     -144.2588222825
  O        -3.0014363603        2.1807850632       -0.2809724904
  O        -4.2617511610       -0.0296471504        0.8376049032
  S        -2.8564845638        0.6474679744        0.2939419203
  H        -0.2657514047        2.1406093888        0.5455500908
  H        -0.7050444451        1.2491904982       -1.7125110856
  H         3.7394793754       -0.5869181742        0.5957549776
  H         3.1704312371       -1.7805972084       -0.5965819725
  H         3.8112020047       -0.2000960640       -1.1459169222
 Cl        -1.1505871483       -3.1977629718       -0.2865115411
 Cl        -0.5724885477       -2.0331112529        2.6653862905
 Cl        -1.2520428029        1.0773642011        2.9786351502
 Cl        -2.2924010581       -1.0146608701       -2.3292760112
  C        -1.2913256616       -1.5767704998        0.1213407248
  C        -1.0469563882       -1.0871621965        1.3682625512
  C        -1.1074993150        0.3789156043        1.4238983138
  C        -0.1627164499        1.0241449267        0.4829962424
  C        -0.4442791019        0.4530835096       -0.9642818626
  C        -1.5534114565       -0.5242550716       -0.8666114820
  N         1.8346362444       -0.1477088382       -0.3039942656
  C         0.8947683821       -0.2004264401       -1.3951576373
  O         1.1594578481       -0.7260712315       -2.4504026441
  C         1.3153344409        0.6586117564        0.7757113564
  O         1.9753716207        0.9319280279        1.7469697248
  C         3.2061447206       -0.6986820556       -0.3671556850
      24
 i =      10, E =     -144.2611205346
  O        -3.0178890044        2.1828590384       -0.2783645736
  O        -4.2488954691       -0.0363096533        0.8376027142
  S        -2.8587879004        0.6511241306        0.2927275832
  H        -0.2631044608        2.1281127867        0.5304751206
  H        -0.6950358289        1.2493991344       -1.6946845043
  H         3.7418476387       -0.5518452436        0.5826118358
  H         3.1614619506       -1.7797485515       -0.5669993832
  H         3.8024678609       -0.2209507325       -1.1698078383
 Cl        -1.1741979243       -3.1940886802       -0.2876894178
 Cl        -0.5947056460       -2.0267545779        2.6715544355
 Cl        -1.2404077330        1.0760174197        2.9782531691
 Cl        -2.2806244931       -1.0164862160       -2.3317810924
  C        -1.2737487313       -1.5761533548        0.1139553636
  C        -1.0287373619       -1.0839150875        1.3667359045
  C        -1.1172362539        0.3574988508        1.4588752523
  C        -0.1341294622        1.0357825444        0.4584692024
  C        -0.4107411737        0.4745846023       -0.9640543872
  C        -1.5707106863       -0.5617457788       -0.8730041460
  N         1.8369208308       -0.1298297781       -0.3109043301
  C         0.8908415951       -0.2044839352       -1.3887282424
  O         1.1557654579       -0.7202124113       -2.4499168772
  C         1.3101129865        0.6521214822        0.7760644735
  O         1.9698806321        0.9385972349        1.7470777089
  C         3.1991200447       -0.6905610521       -0.3702297420
      24
 i =      11, E =     -144.2620962599
  O        -3.0179475842        2.1832570100       -0.2785036312
  O        -4.2494563216       -0.0357050175        0.8374719548
  S        -2.8583174302        0.6508194616        0.2927464812
  H        -0.2632621415        2.1300961733        0.5303478486
  H        -0.6953121464        1.2509759124       -1.6958949186
  H         3.7397741305       -0.5541095651        0.5818449322
  H         3.1619877016       -1.7771810524       -0.5693127805
  H         3.8016574156       -0.2200177918       -1.1666298582
 Cl        -1.1745130492       -3.1948142688       -0.2875688556
 Cl        -0.5949483269       -2.0272767226        2.6720511632
 Cl        -1.2404922559        1.0766184620        2.9800403662
 Cl        -2.2813194311       -1.0172150805       -2.3333705306
  C        -1.2737529037       -1.5778572306        0.1148283742
  C        -1.0288384490       -1.0857808644        1.3673181727
  C        -1.1160358584        0.3597602530        1.4543424785
  C        -0.1371555853        1.0329722886        0.4610884526
  C        -0.4141089450        0.4711130397       -0.9629395324
  C        -1.5683624824       -0.5572604032       -0.8717702630
  N         1.8383541048       -0.1320452056       -0.3104537058
  C         0.8932932439       -0.2044403550       -1.3905518473
  O         1.1555368429       -0.7203091493       -2.4500411187
  C         1.3135596877        0.6532688892        0.7773194883
  O         1.9691187405        0.9385595528        1.7466341924
  C         3.1992215231       -0.6911654287       -0.3703572442
      24
 i =      12, E =     -144.2626165736
  O        -3.0181772399        2.1836821089       -0.2786254891
  O        -4.2500077720       -0.0351220066        0.8373361531
  S        -2.8576584401        0.6505644587        0.2927261644
  H        -0.2633596126        2.1316703639        0.5299868819
  H        -0.6953860280        1.2523783625       -1.6966923164
  H         3.7375606731       -0.5563493613        0.5811855664
  H         3.1624685785       -1.7747378424       -0.5718339392
  H         3.8008759907       -0.2189153712       -1.1635131696
 Cl        -1.1751628319       -3.1957200408       -0.2875149604
 Cl        -0.5954564863       -2.0278529305        2.6728279188
 Cl        -1.2404345482        1.0771499423        2.9817679595
 Cl        -2.2818224951       -1.0179729674       -2.3349114066
  C        -1.2736676903       -1.5792824137        0.1157009346
  C        -1.0289223119       -1.0874228096        1.3676817931
  C        -1.1149055658        0.3616205772        1.4501153822
  C        -0.1397025147        1.0305662885        0.4636984176
  C        -0.4170265820        0.4679200537       -0.9621762939
  C        -1.5661703488       -0.5532526654       -0.8704597879
  N         1.8395407697       -0.1341328323       -0.3098986429
  C         0.8953588243       -0.2037908182       -1.3911398010
  O         1.1555778296       -0.7208411718       -2.4512857974
  C         1.3154756057        0.6537857057        0.7764173862
  O         1.9696432507        0.9392135140        1.7481089833
  C         3.1993013067       -0.6916135688       -0.3704838288
      24
 i =      13, E =     -144.2591884670
  O        -3.0228223570        2.1874802881       -0.2791664747
  O        -4.2536909151       -0.0304199037        0.8360637823
  S        -2.8504527431        0.6495110198        0.2917258654
  H        -0.2631720742        2.1400986917        0.5236551981
  H        -0.6929709524        1.2626086878       -1.6980965084
  H         3.7164960114       -0.5745911247        0.5775308780
  H         3.1654692024       -1.7556432954       -0.5962404614
  H         3.7944718261       -0.2067997162       -1.1383356587
 Cl        -1.1861983116       -3.2058904348       -0.2878833000
 Cl        -0.6043818458       -2.0331908545        2.6834408628
 Cl        -1.2375314735        1.0804465725        2.9955336363
 Cl        -2.2831720642       -1.0250336595       -2.3474560274
  C        -1.2717153845       -1.5888749097        0.1220845775
  C        -1.0284646965       -1.0990285639        1.3694512763
  C        -1.1064085737        0.3725409874        1.4200575112
  C        -0.1558338781        1.0147452127        0.4832863658
  C        -0.4363190846        0.4457678313       -0.9595023739
  C        -1.5496092675       -0.5264885794       -0.8592776511
  N         1.8467480819       -0.1511114657       -0.3050510970
  C         0.9110694431       -0.1989312633       -1.3982205887
  O         1.1560599394       -0.7234898889       -2.4610820360
  C         1.3333072444        0.6602490304        0.7743605586
  O         1.9712406247        0.9454927451        1.7565513232
  C         3.2001524638       -0.6936267159       -0.3714798988
      24
 i =      14, E =     -144.2615689937
  O        -3.0244866320        2.1871075909       -0.2786761593
  O        -4.2520985251       -0.0312098624        0.8360526171
  S        -2.8507063986        0.6501143508        0.2915318143
  H        -0.2628674301        2.1372147330        0.5223297255
  H        -0.6918125412        1.2613588892       -1.6954203424
  H         3.7176770885       -0.5713493929        0.5793805821
  H         3.1639729016       -1.7592394469       -0.5941350043
  H         3.7951687621       -0.2072944359       -1.1427659172
 Cl        -1.1884701846       -3.2057535217       -0.2882756083
 Cl        -0.6064078765       -2.0325725309        2.6843966537
 Cl        -1.2361127434        1.0795312953        2.9937377355
 Cl        -2.2810582546       -1.0246620866       -2.3460864243
  C        -1.2707136206       -1.5874188122        0.1207352941
  C        -1.0272724328       -1.0970694252        1.3690539303
  C        -1.1081370428        0.3689989764        1.4272437969
  C        -0.1504729372        1.0185530034        0.4787691075
  C        -0.4302929772        0.4508276048       -0.9605768186
  C        -1.5530732878       -0.5335208130       -0.8613688944
  N         1.8440816235       -0.1483830378       -0.3053982012
  C         0.9085731576       -0.2000719640       -1.3982864094
  O         1.1557504118       -0.7223836051       -2.4597418929
  C         1.3303323635        0.6595689367        0.7749575021
  O         1.9709525100        0.9459082827        1.7562025931
  C         3.1991380864       -0.6927366641       -0.3714318293
      24
 i =      15, E =     -144.2634567296
  O        -3.0273063169        2.1863294371       -0.2778003685
  O        -4.2490138872       -0.0322495285        0.8358166573
  S        -2.8514029093        0.6511727451        0.2912584127
  H        -0.2622616234        2.1320093672        0.5199491791
  H        -0.6896584591        1.2590890963       -1.6906054889
  H         3.7194099343       -0.5666189750        0.5832065945
  H         3.1616597000       -1.7651913228       -0.5918840069
  H         3.7967639649       -0.2069103861       -1.1499074476
 Cl        -1.1929613388       -3.2053975391       -0.2888730167
 Cl        -0.6104721051       -2.0314165148        2.6861492364
 Cl        -1.2335541001        1.0775561679        2.9901532733
 Cl        -2.2770241063       -1.0240113432       -2.3431465488
  C        -1.2693038321       -1.5851791254        0.1179979906
  C        -1.0253766454       -1.0935792062        1.3689064981
  C        -1.1109833707        0.3626927940        1.4405536241
  C        -0.1406269187        1.0251454481        0.4701664094
  C        -0.4190671690        0.4600228752       -0.9621902691
  C        -1.5592704333       -0.5464074753       -0.8654599837
  N         1.8392321860       -0.1440160205       -0.3058993487
  C         0.9035212358       -0.2012745081       -1.3969132654
  O         1.1558427432       -0.7208132448       -2.4587730233
  C         1.3252934981        0.6587224312        0.7768008345
  O         1.9701990037        0.9466457932        1.7545481334
  C         3.1972212093       -0.6912084722       -0.3714575342
      24
 i =      16, E =     -144.2622570034
  O        -3.0308104729        2.1851434107       -0.2766448111
  O        -4.2446259452       -0.0328034630        0.8350721205
  S        -2.8525859678        0.6524909889        0.2910187487
  H        -0.2613493525        2.1255757376        0.5166762864
  H        -0.6866599491        1.2565200404       -1.6845218808
  H         3.7205754166       -0.5628311223        0.5891018923
  H         3.1594463157       -1.7716788894       -0.5924078028
  H         3.7994512590       -0.2035547671       -1.1572731561
 Cl        -1.2001209097       -3.2048612622       -0.2893581939
 Cl        -0.6170946186       -2.0298858740        2.6887045276
 Cl        -1.2299945824        1.0743607840        2.9850237296
 Cl        -2.2711855576       -1.0233427721       -2.3386375435
  C        -1.2681081367       -1.5828982676        0.1146426948
  C        -1.0234717523       -1.0896241368        1.3692110573
  C        -1.1140905032        0.3545891969        1.4583821297
  C        -0.1276666417        1.0330132911        0.4583438586
  C        -0.4040028365        0.4718647887       -0.9633661412
  C        -1.5669863855       -0.5635992209       -0.8713595556
  N         1.8329847141       -0.1395142199       -0.3061251539
  C         0.8971606343       -0.2029152500       -1.3956743816
  O         1.1565298254       -0.7178941620       -2.4572215987
  C         1.3186920622        0.6579120604        0.7790998668
  O         1.9698353849        0.9481955427        1.7518728682
  C         3.1946169217       -0.6893045760       -0.3718164864
      24
 i =      17, E =     -144.2630874394
  O        -3.0300157341        2.1852796791       -0.2768549444
  O        -4.2453495913       -0.0319581160        0.8348719348
  S        -2.8524035158        0.6521529328        0.2911057338
  H        -0.2614843447        2.1277591235        0.5171998434
  H        -0.6871929243        1.2577833035       -1.6862472390
  H         3.7190977983       -0.5659259524        0.5883778271
  H         3.1606845076       -1.7687989150       -0.5955883275
  H         3.7992399108       -0.2016507733       -1.1536046241
 Cl        -1.1999928636       -3.2050429768       -0.2889069747
 Cl        -0.6171079055       -2.0302724282        2.6884715846
 Cl        -1.2304725289        1.0746329998        2.9861399932
 Cl        -2.2720062464       -1.0238301303       -2.3394211897
  C        -1.2689084566       -1.5840459778        0.1158341808
  C        -1.0244012513       -1.0913448039        1.3695247825
  C        -1.1127049809        0.3565075955        1.4541578105
  C        -0.1309191110        1.0303867346        0.4608801381
  C        -0.4075796196        0.4687013594       -0.9623491447
  C        -1.5645039763       -0.5597221945       -0.8701468544
  N         1.8347264177       -0.1418325956       -0.3057328200
  C         0.8991595221       -0.2023454745       -1.3958357742
  O         1.1570535801       -0.7180238953       -2.4579714678
  C         1.3207205324        0.6582962213        0.7784587233
  O         1.9704614592        0.9484540266        1.7519825922
  C         3.1952852004       -0.6897471641       -0.3719943696
      24
 i =      18, E =     -144.2637883026
  O        -3.0288853052        2.1854806311       -0.2771548672
  O        -4.2465145565       -0.0306580256        0.8345676183
  S        -2.8518846005        0.6517378446        0.2911563569
  H        -0.2616092931        2.1304368711        0.5178368916
  H        -0.6877756368        1.2593421521       -1.6883812074
  H         3.7166879374       -0.5710147779        0.5875901299
  H         3.1626681912       -1.7645962027       -0.6011646583
  H         3.7991509500       -0.1980956933       -1.1478712083
 Cl        -1.2002674945       -3.2054290596       -0.2882063568
 Cl        -0.6175507168       -2.0309067954        2.6883750609
 Cl        -1.2310248417        1.0748712319        2.9876403862
 Cl        -2.2729789360       -1.0245934286       -2.3404231810
  C        -1.2702211817       -1.5855804994        0.1174173906
  C        -1.0258711891       -1.0934548842        1.3700016383
  C        -1.1105412107        0.3588890535        1.4480590856