      24
 i =       0, E =     -144.0981929345
  O        -2.5702222842        1.8917697232       -0.2550956459
  O        -4.2276032338        0.2320250594        0.7191468894
  S        -2.8058074818        0.5425110807        0.3219155971
  H        -0.0000705693        2.1309912399        0.6187064122
  H        -0.4927639673        1.1820685701       -1.8197471786
  H         4.0439669206       -0.4732594567        0.3507491129
  H         3.7184620952       -1.1017612149       -1.2873139929
  H         4.1512797275        0.5807048418       -1.0454923842
 Cl        -1.4081044553       -3.3521256833       -0.1438956587
 Cl        -0.8361819027       -2.2018779860        2.7591277139
 Cl        -1.4880362107        0.9823514512        3.0711046627
 Cl        -2.5331043114       -1.1262461297       -2.2514408921
  C        -1.6789374481       -1.7606755232        0.2310906038
  C        -1.4224578657       -1.2413564132        1.5408289533
  C        -1.6274810114        0.0906821488        1.6827647044
  C         0.4299571534        1.3224698115        0.1485873751
  C         0.1749030737        0.8302678364       -1.1150046049
  C        -2.0887447337       -0.8462743710       -0.6802434832
  N         2.2146897677        0.0360738221       -0.4594781976
  C         1.3350900998        0.0807574221       -1.5799612523
  O         1.5389420402       -0.4248630340       -2.6573228389
  C         1.7680849349        0.9169260682        0.5647269234
  O         2.3921619756        1.2186221563        1.5550842878
  C         3.6083521882       -0.2450100512       -0.6235750680
      24
 i =       1, E =     -144.1414426003
  O        -2.5561163451        1.9775658840       -0.2917213322
  O        -4.3123299145        0.2147290310        0.7422454608
  S        -2.7574835262        0.5137673269        0.3239343512
  H        -0.0198844138        2.1509541967        0.6352234291
  H        -0.5180295161        1.1882591029       -1.8357730072
  H         4.0492189312       -0.4720984291        0.3510652346
  H         3.7234460038       -1.1022335260       -1.2907958178
  H         4.1600361010        0.5941794816       -1.0525233470
 Cl        -1.4082283138       -3.3601084146       -0.1431233692
 Cl        -0.8357084608       -2.2078137819        2.7634981415
 Cl        -1.4870254909        0.9820281275        3.0678579353
 Cl        -2.5309750726       -1.1247408439       -2.2495412974
  C        -1.6780289795       -1.7612862057        0.2116708905
  C        -1.4150791557       -1.2290287923        1.5544153538
  C        -1.6292401813        0.0715465466        1.7105455368
  C         0.4281388016        1.3109408900        0.0982609952
  C         0.1907841933        0.8556623125       -1.0728731260
  C        -2.0972965064       -0.8776212986       -0.6858387247
  N         2.2348052779        0.0220341306       -0.4588144854
  C         1.3353150114        0.0708904088       -1.5955634354
  O         1.5448268025       -0.4259823025       -2.6632388726
  C         1.7745136298        0.9209956228        0.5836429302
  O         2.3982884334        1.2204806218        1.5561278987
  C         3.6239245235       -0.2518052122       -0.6239375204
      24
 i =       2, E =     -144.1524460634
  O        -2.5532066126        2.0010870936       -0.3015697480
  O        -4.3303884247        0.2111881794        0.7471480485
  S        -2.7583370244        0.5201124388        0.3215823195
  H        -0.0252036424        2.1479537026        0.6357035653
  H        -0.5225445196        1.1864043827       -1.8321872171
  H         4.0523855948       -0.4734502748        0.3530056771
  H         3.7261900432       -1.1050302098       -1.2925445654
  H         4.1630864379        0.5970950911       -1.0543361225
 Cl        -1.4066581123       -3.3645347665       -0.1424204266
 Cl        -0.8339262714       -2.2116499445        2.7653635018
 Cl        -1.4857405611        0.9840027704        3.0683586383
 Cl        -2.5301380017       -1.1238958398       -2.2516683453
  C        -1.6695461127       -1.7695539639        0.2193329107
  C        -1.4085496650       -1.2416420718        1.5519343209
  C        -1.6341588119        0.0739588116        1.7235542356
  C         0.4348566920        1.3425660188        0.1407280762
  C         0.1795369988        0.8502610020       -1.1238231822
  C        -2.1064574747       -0.8837023538       -0.6943347535
  N         2.2365658464        0.0164134600       -0.4567150246
  C         1.3370812354        0.0711889673       -1.5861199702
  O         1.5466401769       -0.4304161361       -2.6733577820
  C         1.7713087213        0.9140543548        0.5742224272
  O         2.4047998169        1.2242193072        1.5670013557
  C         3.6339745022       -0.2524685373       -0.6259239636
      24
 i =       3, E =     -144.1595402878
  O        -2.5515589804        2.0157043275       -0.3076532178
  O        -4.3401605281        0.2093327095        0.7497904833
  S        -2.7619058336        0.5262808522        0.3198149602
  H        -0.0333648511        2.1535819897        0.6413649600
  H        -0.5323870492        1.1878299589       -1.8366441817
  H         4.0548980202       -0.4746505897        0.3542859011
  H         3.7284550762       -1.1071989209       -1.2936834661
  H         4.1655402584        0.5991422544       -1.0556891595
 Cl        -1.4049961161       -3.3685495421       -0.1420428189
 Cl        -0.8319468969       -2.2150916813        2.7672569651
 Cl        -1.4846687115        0.9859269441        3.0698036257
 Cl        -2.5298349891       -1.1236828314       -2.2543870926
  C        -1.6665862576       -1.7706059103        0.2174568889
  C        -1.4051632154       -1.2414180548        1.5527304297
  C        -1.6370848841        0.0670005996        1.7291473294
  C         0.4337344174        1.3381202272        0.1163393651
  C         0.1877665592        0.8628154921       -1.1039213958
  C        -2.1101570821       -0.8918444113       -0.6923357887
  N         2.2374823254        0.0118802085       -0.4551713999
  C         1.3391907466        0.0658304924       -1.5939282458
  O         1.5467992579       -0.4292435335       -2.6694407764
  C         1.7775792490        0.9152630546        0.5837931754
  O         2.4022156866        1.2221648128        1.5620599305
  C         3.6393949671       -0.2531415395       -0.6268297581
      24
 i =       4, E =     -144.1642120055
  O        -2.5496802481        2.0345328965       -0.3154499995
  O        -4.3516519113        0.2072812457        0.7528564810
  S        -2.7690059533        0.5362338564        0.3172000641
  H        -0.0417667539        2.1543777856        0.6448095860
  H        -0.5409286256        1.1870789554       -1.8362824326
  H         4.0586974784       -0.4767353175        0.3558828676
  H         3.7320305182       -1.1104554096       -1.2949764763
  H         4.1690993549        0.6015043022       -1.0574241470
 Cl        -1.4020153999       -3.3743440434       -0.1413484628
 Cl        -0.8285982580       -2.2202322575        2.7696809880
 Cl        -1.4830244687        0.9885279288        3.0716255390
 Cl        -2.5292095630       -1.1234033947       -2.2581367411
  C        -1.6610340969       -1.7743448989        0.2173673324
  C        -1.3996200436       -1.2447935657        1.5531014783
  C        -1.6429743481        0.0609469599        1.7369569014
  C         0.4373279582        1.3515178169        0.1191189920
  C         0.1888584182        0.8704441623       -1.1153674090
  C        -2.1174285534       -0.9002076720       -0.6911027436
  N         2.2407171832        0.0042792512       -0.4527676853
  C         1.3394758075        0.0663621267       -1.5877861255
  O         1.5483929967       -0.4332617882       -2.6758216069
  C         1.7743767426        0.9112644311        0.5777730647
  O         2.4067038875        1.2236536032        1.5696188376
  C         3.6451248019       -0.2542985092       -0.6277177587
      24
 i =       5, E =     -144.1665421606
  O        -2.5489533257        2.0432889745       -0.3190463494
  O        -4.3564834919        0.2066867982        0.7540493828
  S        -2.7736029087        0.5417518418        0.3159467946
  H        -0.0469385249        2.1556095436        0.6473509840
  H        -0.5464365753        1.1868991506       -1.8368529773
  H         4.0608762177       -0.4779634332        0.3564272633
  H         3.7342063297       -1.1121198457       -1.2954407499
  H         4.1709352193        0.6023153585       -1.0581672353
 Cl        -1.3999859302       -3.3776516316       -0.1409191484
 Cl        -0.8264160987       -2.2232009793        2.7708895653
 Cl        -1.4821312014        0.9897835680        3.0725751096
 Cl        -2.5288158363       -1.1233153338       -2.2599590512
  C        -1.6583570695       -1.7759863488        0.2171557745
  C        -1.3968590855       -1.2462567826        1.5533933041
  C        -1.6468168730        0.0577363114        1.7402000803
  C         0.4383364182        1.3552817485        0.1127626438
  C         0.1916864900        0.8771616906       -1.1138241078
  C        -2.1216563249       -0.9040591907       -0.6897970378
  N         2.2412378866        0.0001572588       -0.4513060543
  C         1.3412739624        0.0627578685       -1.5936870744
  O         1.5477001182       -0.4319728473       -2.6710526542
  C         1.7791913193        0.9125513162        0.5846566557
  O         2.4032965354        1.2213493036        1.5647137822
  C         3.6482394144       -0.2551377244       -0.6280918747
      24
 i =       6, E =     -144.1692415005
  O        -2.5481000465        2.0556031888       -0.3240711097
  O        -4.3632230992        0.2060542541        0.7556382522
  S        -2.7806584122        0.5500754915        0.3140678455
  H        -0.0542188928        2.1560999681        0.6502133977
  H        -0.5537787111        1.1861768945       -1.8364028900
  H         4.0643616740       -0.4799609801        0.3570504280
  H         3.7377615697       -1.1146099004       -1.2959743875
  H         4.1736744674        0.6031470099       -1.0591560042
 Cl        -1.3965752723       -3.3825812892       -0.1402147489
 Cl        -0.8228185375       -2.2277341221        2.7725357218
 Cl        -1.4808180824        0.9914708331        3.0738030805
 Cl        -2.5281958955       -1.1232222348       -2.2625600226
  C        -1.6545295712       -1.7784096812        0.2168488200
  C        -1.3929296164       -1.2483577123        1.5537800740
  C        -1.6530531510        0.0531509660        1.7446804063
  C         0.4420917448        1.3641614019        0.1103678772
  C         0.1950966849        0.8848103904       -1.1190107685
  C        -2.1282984001       -0.9092866818       -0.6873801830
  N         2.2423372060       -0.0063407741       -0.4489892744
  C         1.3412755419        0.0647108174       -1.5878747468
  O         1.5486875842       -0.4356049103       -2.6754251948
  C         1.7760839844        0.9100572523        0.5786140793
  O         2.4062585645        1.2217672362        1.5704901285
  C         3.6519195433       -0.2564156431       -0.6284784654
      24
 i =       7, E =     -144.1706376605
  O        -2.5478953630        2.0599847477       -0.3258394988
  O        -4.3656175195        0.2060538172        0.7561184061
  S        -2.7834499615        0.5531437249        0.3134241142
  H        -0.0570766009        2.1561570490        0.6513086991
  H        -0.5566408734        1.1858147762       -1.8361406203
  H         4.0658351845       -0.4807845061        0.3571456737
  H         3.7393160387       -1.1155434551       -1.2960947966
  H         4.1746992229        0.6032640670       -1.0594522333
 Cl        -1.3950271033       -3.3844720720       -0.1398914244
 Cl        -0.8212353443       -2.2295391912        2.7730421183
 Cl        -1.4803418772        0.9919877828        3.0741626083
 Cl        -2.5279128951       -1.1232011644       -2.2633395520
  C        -1.6531925622       -1.7792827498        0.2167857813
  C        -1.3915638953       -1.2491267669        1.5539347710
  C        -1.6557681618        0.0514647904        1.7461983097
  C         0.4430544838        1.3676140533        0.1083665619
  C         0.1963236137        0.8885161071       -1.1202079332
  C        -2.1311178263       -0.9110606899       -0.6863529392
  N         2.2425085980       -0.0089985568       -0.4480142841
  C         1.3425037465        0.0628107919       -1.5915569400
  O         1.5480622253       -0.4347692633       -2.6719721560
  C         1.7790167365        0.9110828876        0.5824942836
  O         2.4039042301        1.2201264810        1.5673477707
  C         3.6532911765       -0.2570008046       -0.6285838451
      24
 i =       8, E =     -144.1792236203
  O        -2.5459182296        2.1177324436       -0.3490980043
  O        -4.3975733793        0.2072513465        0.7620171024
  S        -2.8219708775        0.5944913542        0.3048794975
  H        -0.0965049749        2.1558044265        0.6654099439
  H        -0.5957174704        1.1806044761       -1.8312578728
  H         4.0869161157       -0.4926003025        0.3577702096
  H         3.7617752966       -1.1284060762       -1.2972537057
  H         4.1886782574        0.6036373227       -1.0630633081
 Cl        -1.3725136829       -3.4096831144       -0.1351991385
 Cl        -0.7984325579       -2.2542840610        2.7790077047
 Cl        -1.4740713457        0.9983454065        3.0783277980
 Cl        -2.5238044277       -1.1230107220       -2.2727024866
  C        -1.6359434461       -1.7909525410        0.2156585800
  C        -1.3738534770       -1.2591098497        1.5561387076
  C        -1.6941548486        0.0283851608        1.7660637067
  C         0.4628882445        1.4151191397        0.0849338146
  C         0.2178435601        0.9363626094       -1.1411110716
  C        -2.1707010221       -0.9342395768       -0.6711725618
  N         2.2448465849       -0.0459676685       -0.4339955539
  C         1.3475259571        0.0667034121       -1.5833879857
  O         1.5485784877       -0.4466096510       -2.6726775523
  C         1.7787688579        0.9084432917        0.5724297316
  O         2.4041756100        1.2128011556        1.5762450570
  C         3.6697056440       -0.2651431846       -0.6296328773
      24
 i =       9, E =     -144.1802083398
  O        -2.5465502112        2.1170564825       -0.3487091588
  O        -4.3978499585        0.2084898089        0.7615988578
  S        -2.8228119049        0.5945508370        0.3050436197
  H        -0.0968151554        2.1544747652        0.6647606022
  H        -0.5955812802        1.1800615030       -1.8299108891
  H         4.0881484955       -0.4930499112        0.3570919650
  H         3.7632519251       -1.1284854940       -1.2969762119
  H         4.1887744089        0.6027458765       -1.0627960177
 Cl        -1.3709588825       -3.4096702999       -0.1348099786
 Cl        -0.7970921713       -2.2547925219        2.7782424034
 Cl        -1.4742911334        0.9976343657        3.0776933806
 Cl        -2.5236641441       -1.1230879170       -2.2716591080
  C        -1.6369136423       -1.7905028287        0.2155825573
  C        -1.3747286993       -1.2588847474        1.5562046043
  C        -1.6957618418        0.0279105439        1.7658409501
  C         0.4632735611        1.4181879679        0.0856865390
  C         0.2175730366        0.9380601520       -1.1438127345
  C        -2.1719834272       -0.9344485825       -0.6700988139
  N         2.2441337435       -0.0468936767       -0.4335006802
  C         1.3494007967        0.0644289456       -1.5901064239
  O         1.5472408742       -0.4443490457       -2.6661188239
  C         1.7834856290        0.9110493953        0.5783884730
  O         2.4000566899        1.2102909773        1.5704303311
  C         3.6694421892       -0.2656897262       -0.6293619084
      24
 i =      10, E =     -144.1814041050
  O        -2.5508895173        2.1131421395       -0.3463282424
  O        -4.4008856388        0.2169187440        0.7589779749
  S        -2.8282504354        0.5946328436        0.3062167225
  H        -0.1009323936        2.1479479832        0.6621300272
  H        -0.5974451718        1.1773195330       -1.8229534660
  H         4.0966827419       -0.4964457335        0.3528492273
  H         3.7733560635       -1.1294873296       -1.2951254759
  H         4.1894145932        0.5966104758       -1.0609455820
 Cl        -1.3600976184       -3.4090527994       -0.1321260499
 Cl        -0.7877881812       -2.2579576425        2.7725668966
 Cl        -1.4758467451        0.9929641734        3.0735407864
 Cl        -2.5228454486       -1.1235858058       -2.2647860134
  C        -1.6425005335       -1.7894022449        0.2168026450
  C        -1.3804234414       -1.2586973562        1.5565375430
  C        -1.7068282690        0.0255883391        1.7648690868
  C         0.4698889996        1.4306403769        0.0790076693
  C         0.2244215976        0.9507280279       -1.1497197835
  C        -2.1816324356       -0.9346758164       -0.6644611870
  N         2.2402551552       -0.0534365395       -0.4300474367
  C         1.3510648699        0.0751173023       -1.5841893200
  O         1.5466780137       -0.4504632549       -2.6659194314
  C         1.7815782205        0.9149845494        0.5668640681
  O         2.4000591563        1.2061763213        1.5754749963
  C         3.6666170500       -0.2691954913       -0.6275336824
      24
 i =      11, E =     -144.1820847034
  O        -2.5513540200        2.1133162235       -0.3463088799
  O        -4.4023956251        0.2180206859        0.7588521453
  S        -2.8286919048        0.5943320038        0.3064283743
  H        -0.1018103580        2.1477664407        0.6622343812
  H        -0.5982325045        1.1772077752       -1.8226664687
  H         4.0978105788       -0.4969676843        0.3526183138
  H         3.7745706538       -1.1298328184       -1.2950372525
  H         4.1893643534        0.5960206698       -1.0607807506
 Cl        -1.3585882902       -3.4086101984       -0.1317481723
 Cl        -0.7865607772       -2.2581162888        2.7715068136
 Cl        -1.4761355098        0.9925634879        3.0732494881
 Cl        -2.5229403098       -1.1236640069       -2.2642379790
  C        -1.6429884824       -1.7901411189        0.2174364706
  C        -1.3810674130       -1.2593310140        1.5568043807
  C        -1.7081853932        0.0253901448        1.7651361362
  C         0.4705821951        1.4322546027        0.0778113947
  C         0.2252034925        0.9526482930       -1.1502342310
  C        -2.1830701824       -0.9346445964       -0.6642018718
  N         2.2399647469       -0.0540939061       -0.4297229827
  C         1.3526547198        0.0724050728       -1.5908738518
  O         1.5455679678       -0.4483233192       -2.6601240112
  C         1.7858931037        0.9172676448        0.5730138334
  O         2.3965126098        1.2040731053        1.5702807573
  C         3.6668033261       -0.2697426907       -0.6273702097
      24
 i =      12, E =     -144.1823195305
  O        -2.5519506738        2.1134396673       -0.3462427827
  O        -4.4042024815        0.2194551527        0.7586586969
  S        -2.8294156398        0.5940230933        0.3066950889
  H        -0.1028931653        2.1475115720        0.6622806193
  H        -0.5991794192        1.1771027403       -1.8222450668
  H         4.0992384811       -0.4976482667        0.3523243341
  H         3.7761112836       -1.1302923305       -1.2949154059
  H         4.1893343465        0.5952952816       -1.0605841199
 Cl        -1.3566596454       -3.4081185967       -0.1312989039
 Cl        -0.7849713884       -2.2583466967        2.7702282524
 Cl        -1.4765057065        0.9920904398        3.0729310364
 Cl        -2.5230880276       -1.1237706189       -2.2636096192
  C        -1.6438385342       -1.7906794660        0.2178797541
  C        -1.3819639407       -1.2598358918        1.5571602944
  C        -1.7098255219        0.0248437405        1.7653966969
  C         0.4720959061        1.4340726918        0.0766285273
  C         0.2267486958        0.9546018731       -1.1511304199
  C        -2.1846467456       -0.9349459463       -0.6634727546
  N         2.2398166677       -0.0549428524       -0.4293293256
  C         1.3528156234        0.0739658813       -1.5895591533
  O         1.5456864290       -0.4496894225       -2.6610690654
  C         1.7853235378        0.9175793161        0.5710274725
  O         2.3970832788        1.2037320228        1.5719274802
  C         3.6668282821       -0.2703877602       -0.6271434887
      24
 i =      13, E =     -144.1841307682
  O        -2.5589703546        2.1136316171       -0.3449413617
  O        -4.4244311952        0.2368289103        0.7559999301
  S        -2.8401385770        0.5915393509        0.3097862237
  H        -0.1139787301        2.1435184913        0.6617092802
  H        -0.6082840678        1.1756255444       -1.8164698693
  H         4.1158903505       -0.5055763320        0.3488652988
  H         3.7940700292       -1.1356932740       -1.2935376568
  H         4.1889582457        0.5872121020       -1.0584362137
 Cl        -1.3336448495       -3.4029848290       -0.1262462379
 Cl        -0.7658066056       -2.2614164127        2.7556736095
 Cl        -1.4810866572        0.9867758155        3.0696698870
 Cl        -2.5251620271       -1.1250848798       -2.2564444827
  C        -1.6548851320       -1.7952494219        0.2221388349
  C        -1.3931489832       -1.2647049389        1.5611217170
  C        -1.7288803346        0.0170911245        1.7684221723
  C         0.4864881954        1.4588929497        0.0657488610
  C         0.2409813591        0.9781670048       -1.1647812624
  C        -2.2024836703       -0.9401618504       -0.6537157817
  N         2.2384452476       -0.0642677492       -0.4248119579
  C         1.3598030729        0.0793509348       -1.5988152391
  O         1.5434804991       -0.4554572933       -2.6515664654
  C         1.7942371154        0.9270758455        0.5718560576
  O         2.3916916338        1.1940688511        1.5710087234
  C         3.6679891529       -0.2784432938       -0.6244078174
      24
 i =      14, E =     -144.1848575527
  O        -2.5592692384        2.1130346465       -0.3446530707
  O        -4.4250129562        0.2379461392        0.7556809629
  S        -2.8414959716        0.5917616873        0.3099963476
  H        -0.1140987836        2.1435067200        0.6614950884
  H        -0.6082318774        1.1757445761       -1.8162747839
  H         4.1165852485       -0.5058700199        0.3487193664
  H         3.7947948670       -1.1359370181       -1.2935233028
  H         4.1890005409        0.5871103488       -1.0584285002
 Cl        -1.3324973110       -3.4030854601       -0.1261445370
 Cl        -0.7648105007       -2.2616466067        2.7551876211
 Cl        -1.4814378238        0.9866237355        3.0697328681
 Cl        -2.5254565940       -1.1252035027       -2.2562286472
  C        -1.6553970166       -1.7954052824        0.2226994144
  C        -1.3936931323       -1.2652240366        1.5612209425
  C        -1.7298200116        0.0169119281        1.7687485750
  C         0.4871942143        1.4591060753        0.0640841945
  C         0.2420548734        0.9793560305       -1.1640779022
  C        -2.2034892067       -0.9403737618       -0.6536621691
  N         2.2385389582       -0.0642435673       -0.4248806171
  C         1.3590540630        0.0832203024       -1.5920568724
  O         1.5446069080       -0.4588092459       -2.6574534344
  C         1.7907142094        0.9257291632        0.5651500810
  O         2.3951123236        1.1952906352        1.5768013129
  C         3.6682610862       -0.2787489255       -0.6243424797
      24
 i =      15, E =     -144.1850160393
  O        -2.5600005670        2.1117113093       -0.3440060914
  O        -4.4269803381        0.2407922265        0.7549602571
  S        -2.8446387966        0.5921027864        0.3105437190
  H        -0.1140664882        2.1432113900        0.6607206804
  H        -0.6077442841        1.1759789978       -1.8155999160
  H         4.1183507171       -0.5066267395        0.3483875725
  H         3.7966176295       -1.1365723610       -1.2934960833
  H         4.1890563969        0.5868380541       -1.0583969657
 Cl        -1.3295095718       -3.4032293296       -0.1258678760
 Cl        -0.7622008647       -2.2622291023        2.7538981822
 Cl        -1.4823764140        0.9862208191        3.0698930535
 Cl        -2.5262493010       -1.1255327361       -2.2556896695
  C        -1.6569550454       -1.7957344775        0.2235946210
  C        -1.3951976173       -1.2660628826        1.5617473086
  C        -1.7322089817        0.0160227855        1.7695455688
  C         0.4880562123        1.4617110741        0.0626590576
  C         0.2428976282        0.9821300232       -1.1651541301
  C        -2.2059508875       -0.9411743022       -0.6530919513
  N         2.2387102442       -0.0640616125       -0.4249717619
  C         1.3609979746        0.0819619749       -1.5958896237
  O         1.5441995648       -0.4579657263       -2.6542202366
  C         1.7938194936        0.9271028422        0.5678789144
  O         2.3935076188        1.1939591888        1.5744593308
  C         3.6692841799       -0.2795967756       -0.6242170505
      24
 i =      16, E =     -144.1854992250
  O        -2.5615137867        2.1093487641       -0.3428113005
  O        -4.4321222373        0.2467798291        0.7536390309
  S        -2.8504581316        0.5922997952        0.3117306645
  H        -0.1142185584        2.1429867777        0.6592753676
  H        -0.6071139187        1.1766962749       -1.8145468175
  H         4.1222398348       -0.5082200169        0.3476904267
  H         3.8006072700       -1.1378994223       -1.2934741662
  H         4.1893044858        0.5862486706       -1.0583504083
 Cl        -1.3231619374       -3.4033254490       -0.1252350480
 Cl        -0.7566209568       -2.2634659167        2.7511317371
 Cl        -1.4844522786        0.9853087227        3.0702439332
 Cl        -2.5280247481       -1.1262842784       -2.2545858884
  C        -1.6604529905       -1.7965492569        0.2250236929
  C        -1.3985267323       -1.2674888934        1.5630445666
  C        -1.7373830737        0.0138972476        1.7712822145
  C         0.4914126561        1.4662909454        0.0595818756
  C         0.2464355592        0.9870688769       -1.1672513742
  C        -2.2111794817       -0.9430900144       -0.6514538859
  N         2.2399485386       -0.0638798721       -0.4252299932
  C         1.3622688659        0.0865499338       -1.5912561449
  O         1.5453659034       -0.4618168110       -2.6583384030
  C         1.7928196244        0.9274943161        0.5616586801
  O         2.3961988103        1.1937479103        1.5795086246
  C         3.6708815351       -0.2810975462       -0.6239993897
      24
 i =      17, E =     -144.1857249909
  O        -2.5617114481        2.1092486021       -0.3427340233
  O        -4.4337694287        0.2478584767        0.7535425510
  S        -2.8509514264        0.5918990155        0.3120030039
  H        -0.1141933490        2.1431154800        0.6590583317
  H        -0.6070339275        1.1769290590       -1.8145472762
  H         4.1229977537       -0.5084582755        0.3475463387
  H         3.8013704649       -1.1380733637       -1.2934949624
  H         4.1894221485        0.5861538202       -1.0583627817
 Cl        -1.3220229566       -3.4031438928       -0.1250762103
 Cl        -0.7556043063       -2.2636581780        2.7505743899
 Cl        -1.4849199293        0.9850846478        3.0703104046
 Cl        -2.5284362866       -1.1264611961       -2.2543839095
  C        -1.6611426639       -1.7969116633        0.2251076473
  C        -1.3991976051       -1.2676927154        1.5633686350
  C        -1.7384501647        0.0134768615        1.7716703005
  C         0.4920962737        1.4673136056        0.0595430234
  C         0.2470455613        0.9877330840       -1.1680816338
  C        -2.2122231872       -0.9435156780       -0.6509774655
  N         2.2403793889       -0.0638027190       -0.4252859415
  C         1.3633038322        0.0848281172       -1.5955601844
  O         1.5448745500       -0.4602068868       -2.6547329043
  C         1.7954308315        0.9288565293        0.5652633197
  O         2.3943058753        1.1926950930        1.5763030012
  C         3.6712434689       -0.2812368835       -0.6240492739
      24
 i =      18, E =     -144.1858578157
  O        -2.5621283164        2.1088739520       -0.3425070454
  O        -4.4368786693        0.2501517094        0.7532607426
  S        -2.8522551770        0.5911758469        0.3125779619
  H        -0.1142055759        2.1434653894        0.6586371593
  H        -0.6069049280        1.1774527551       -1.8145654176
  H         4.1245642611       -0.5089265340        0.3472012464
  H         3.8029589168       -1.1383999370       -1.2935338409
  H         4.1897363963        0.5859872189       -1.0584130135
 Cl        -1.3196909953       -3.4028099059       -0.1247646598
 Cl        -0.7535299231       -2.2640461896        2.7494387734
 Cl        -1.4858937189        0.9846337138        3.0704753026
 Cl        -2.5292979210       -1.1268260002       -2.2539499338
  C        -1.6624929322       -1.7976386985        0.2255077027
  C        -1.4005732437       -1.2682400046        1.5639099563
  C        -1.7406514345        0.0126481458        1.7724613244