      24
 i =       0, E =     -144.1246382652
  O        -2.6719584990        1.9924075516       -0.2742557316
  O        -4.2660359293        0.1750296785        0.7523856014
  S        -2.8247555011        0.5752616808        0.3140275588
  H        -0.1020289661        2.1412587818        0.6269125200
  H        -0.5889754394        1.1895049490       -1.8066978799
  H         3.8913675258       -0.6548893216        0.4536122267
  H         3.5681105732       -1.2878965870       -1.1804085051
  H         4.0496886650        0.3911574149       -0.9534796738
 Cl        -1.2672028561       -3.2962654128       -0.1913699386
 Cl        -0.6969078673       -2.1489862622        2.7076203598
 Cl        -1.4396927592        1.0230267250        3.0468300519
 Cl        -2.4849090717       -1.0838647734       -2.2772538206
  C        -1.5827558899       -1.7088456563        0.1937387448
  C        -1.3266482912       -1.1913986411        1.5005549096
  C        -1.5639941699        0.1401491992        1.6514318578
  C         0.3085188237        1.2842964355        0.1849634888
  C         0.0554952288        0.7890376987       -1.0805985099
  C        -2.0262469699       -0.7956634633       -0.7118858756
  N         2.0764706305       -0.0950461169       -0.3804520338
  C         1.2069549835       -0.0141138074       -1.5211612201
  O         1.4140754296       -0.5326987625       -2.5916921836
  C         1.6364987906        0.8270480642        0.6270390149
  O         2.2583785831        1.1177857505        1.6215368473
  C         3.4725835852       -0.4183055318       -0.5277594151
      24
 i =       1, E =     -144.1478161536
  O        -2.6661228239        2.0517320837       -0.2988339480
  O        -4.3235189439        0.1596539862        0.7695340588
  S        -2.7864698764        0.5567079583        0.3139227416
  H        -0.1162026729        2.1542445398        0.6382379496
  H        -0.6068266032        1.1931950211       -1.8172482023
  H         3.8950028227       -0.6541751231        0.4540041432
  H         3.5715424415       -1.2884227469       -1.1828494504
  H         4.0560999605        0.4003739246       -0.9584044837
 Cl        -1.2668622107       -3.3014576433       -0.1908635215
 Cl        -0.6963051636       -2.1527573887        2.7101761841
 Cl        -1.4386285768        1.0229827209        3.0438536973
 Cl        -2.4828851801       -1.0822566984       -2.2757972687
  C        -1.5832807710       -1.7070950954        0.1729115201
  C        -1.3203607053       -1.1765773865        1.5140514786
  C        -1.5690527624        0.1222145820        1.6726322250
  C         0.3100043047        1.2759571686        0.1409651530
  C         0.0720025021        0.8121443292       -1.0459055835
  C        -2.0358028311       -0.8216855263       -0.7125143661
  N         2.0895520315       -0.1053019726       -0.3795043587
  C         1.2059376581       -0.0216485682       -1.5310424974
  O         1.4181108240       -0.5334918322       -2.5956653570
  C         1.6398024684        0.8290435751        0.6407595078
  O         2.2624105717        1.1189389900        1.6218978662
  C         3.4823410352       -0.4232038448       -0.5277525627
      24
 i =       2, E =     -144.1552844714
  O        -2.6649628275        2.0684972732       -0.3056834789
  O        -4.3351645239        0.1564443961        0.7730612674
  S        -2.7863480816        0.5602686179        0.3124845249
  H        -0.1206305874        2.1508408698        0.6387974356
  H        -0.6105415015        1.1908466257       -1.8138327838
  H         3.8970273249       -0.6552901806        0.4554305235
  H         3.5733060922       -1.2905788479       -1.1839295540
  H         4.0582272608        0.4021929996       -0.9595771111
 Cl        -1.2653184757       -3.3041024668       -0.1903931264
 Cl        -0.6946900988       -2.1551629378        2.7110796586
 Cl        -1.4375036103        1.0246733143        3.0437083233
 Cl        -2.4819816370       -1.0811254047       -2.2772713800
  C        -1.5756064840       -1.7132165224        0.1798218045
  C        -1.3147158161       -1.1865883477        1.5108772099
  C        -1.5763236600        0.1245081507        1.6844250118
  C         0.3177419307        1.3018698547        0.1708411999
  C         0.0663264505        0.8106165839       -1.0852339671
  C        -2.0468260450       -0.8265608518       -0.7195171968
  N         2.0908610456       -0.1099751991       -0.3778972064
  C         1.2074036015       -0.0225233605       -1.5247565010
  O         1.4188665403       -0.5363594248       -2.6019054375
  C         1.6378133298        0.8236730225        0.6349685463
  O         2.2663178950        1.1213468926        1.6292235664
  C         3.4886568762       -0.4240660646       -0.5288646363
      24
 i =       3, E =     -144.1593068587
  O        -2.6643844434        2.0789309716       -0.3099157075
  O        -4.3414482330        0.1547328177        0.7749656666
  S        -2.7885825389        0.5640726292        0.3114138124
  H        -0.1267596063        2.1542443223        0.6428383727
  H        -0.6178186028        1.1914219314       -1.8166120664
  H         3.8985475120       -0.6563578878        0.4564284484
  H         3.5746879383       -1.2923426959       -1.1845534714
  H         4.0598236684        0.4032980859       -0.9603698245
 Cl        -1.2636579405       -3.3065904563       -0.1902104126
 Cl        -0.6928777856       -2.1573130227        2.7120575268
 Cl        -1.4366099723        1.0263700206        3.0445711494
 Cl        -2.4816195579       -1.0806036790       -2.2793080246
  C        -1.5731674374       -1.7132893694        0.1780658036
  C        -1.3118804457       -1.1858422334        1.5112391376
  C        -1.5805903731        0.1186221999        1.6897467304
  C         0.3187759528        1.3003929935        0.1526509404
  C         0.0738513315        0.8211595549       -1.0722558756
  C        -2.0518025857       -0.8337413800       -0.7176939357
  N         2.0910412949       -0.1137220052       -0.3765370797
  C         1.2087242288       -0.0263150217       -1.5292183452
  O         1.4187711643       -0.5360350986       -2.5997290623
  C         1.6417879124        0.8239612238        0.6413221138
  O         2.2645207167        1.1199255626        1.6264168424
  C         3.4923231139       -0.4249657072       -0.5293192011
      24
 i =       4, E =     -144.1628865333
  O        -2.6638358519        2.0924273764       -0.3153563494
  O        -4.3488534982        0.1527715544        0.7771913079
  S        -2.7933700855        0.5704489803        0.3098001830
  H        -0.1337739783        2.1542371819        0.6458749531
  H        -0.6250184363        1.1901616026       -1.8161481449
  H         3.9007422291       -0.6583011688        0.4578011883
  H         3.5767852636       -1.2951713704       -1.1851345585
  H         4.0620294272        0.4043289335       -0.9612639334
 Cl        -1.2606506077       -3.3101195509       -0.1898887397
 Cl        -0.6897028089       -2.1605230037        2.7131980658
 Cl        -1.4352407942        1.0288165853        3.0456897550
 Cl        -2.4809507697       -1.0797849146       -2.2821485774
  C        -1.5685766986       -1.7151856970        0.1774825020
  C        -1.3072399629       -1.1874385097        1.5112642857
  C        -1.5881619090        0.1128681207        1.6975383442
  C         0.3241313938        1.3122682848        0.1523973911
  C         0.0776247961        0.8294153997       -1.0814130862
  C        -2.0607843272       -0.8418854163       -0.7165150100
  N         2.0926333062       -0.1202247661       -0.3742991261
  C         1.2091398601       -0.0267827411       -1.5254292314
  O         1.4192258937       -0.5391256543       -2.6034693165
  C         1.6399703741        0.8209251304        0.6379721352
  O         2.2669039927        1.1204520785        1.6317628602
  C         3.4960687783       -0.4265345438       -0.5296609375
      24
 i =       5, E =     -144.1646458651
  O        -2.6636818523        2.0986352876       -0.3178588602
  O        -4.3519014770        0.1521645706        0.7780186559
  S        -2.7967305650        0.5740694025        0.3090320233
  H        -0.1379934063        2.1547506817        0.6479574254
  H        -0.6295212049        1.1896207475       -1.8164081902
  H         3.9019775731       -0.6595108451        0.4583867242
  H         3.5780437201       -1.2967404559       -1.1852671245
  H         4.0630967209        0.4044956502       -0.9615814987
 Cl        -1.2586084496       -3.3120710140       -0.1896931329
 Cl        -0.6875944482       -2.1623776484        2.7136933068
 Cl        -1.4345245323        1.0301069285        3.0463156120
 Cl        -2.4806002221       -1.0793875699       -2.2836449486
  C        -1.5663247676       -1.7161945062        0.1770884662
  C        -1.3049026413       -1.1882429202        1.5113871316
  C        -1.5927958964        0.1098785215        1.7011357567
  C         0.3264896331        1.3164866215        0.1471280715
  C         0.0811583411        0.8356555343       -1.0814151638
  C        -2.0659561963       -0.8457126717       -0.7153527202
  N         2.0926447894       -0.1239017550       -0.3729333945
  C         1.2103791534       -0.0292326697       -1.5287981796
  O         1.4184979234       -0.5388488360       -2.6006475157
  C         1.6431182823        0.8214962451        0.6424661077
  O         2.2645018303        1.1187379558        1.6290669657
  C         3.4980260210       -0.4276012406       -0.5297055555
      24
 i =       6, E =     -144.1669502192
  O        -2.6635642801        2.1073795846       -0.3213594814
  O        -4.3561904192        0.1514602206        0.7791312147
  S        -2.8020045555        0.5795312687        0.3079129232
  H        -0.1440911431        2.1546021742        0.6505541689
  H        -0.6357540525        1.1884447082       -1.8159751733
  H         3.9039709260       -0.6615016211        0.4591537264
  H         3.5801338647       -1.2991608079       -1.1853174618
  H         4.0646613737        0.4044019407       -0.9619289091
 Cl        -1.2551675464       -3.3149803907       -0.1893844774
 Cl        -0.6840794946       -2.1652257768        2.7143004717
 Cl        -1.4334951407        1.0319631165        3.0471930106
 Cl        -2.4800654979       -1.0787778345       -2.2857333130
  C        -1.5631771208       -1.7175963348        0.1765114838
  C        -1.3016399021       -1.1893401062        1.5115739847
  C        -1.6001498578        0.1054105798        1.7062221740
  C         0.3314232827        1.3251610831        0.1436975429
  C         0.0859705735        0.8436099127       -1.0862229417
  C        -2.0740114050       -0.8512446937       -0.7133408534
  N         2.0928549705       -0.1297114544       -0.3706391302
  C         1.2108006488       -0.0282906524       -1.5251443644
  O         1.4185445535       -0.5419419846       -2.6032130773
  C         1.6414296904        0.8195458623        0.6384382984
  O         2.2660524590        1.1185076151        1.6336475830
  C         3.5000960899       -0.4292412646       -0.5296278445
      24
 i =       7, E =     -144.1679297369
  O        -2.6635895912        2.1104899122       -0.3225866354
  O        -4.3577709451        0.1513712097        0.7794797461
  S        -2.8041428274        0.5815508466        0.3075352338
  H        -0.1465200054        2.1544691795        0.6515991503
  H        -0.6382141313        1.1879073376       -1.8157541499
  H         3.9047922403       -0.6623720218        0.4593758964
  H         3.5810358303       -1.3001520394       -1.1852409743
  H         4.0651989291        0.4041569878       -0.9619597599
 Cl        -1.2535764731       -3.3160749909       -0.1892458653
 Cl        -0.6824886189       -2.1663534726        2.7144184134
 Cl        -1.4331332280        1.0326055196        3.0474574023
 Cl        -2.4798680389       -1.0785392698       -2.2864538675
  C        -1.5621103560       -1.7181081366        0.1763098568
  C        -1.3005164110       -1.1897525222        1.5116605029
  C        -1.6032780941        0.1037324661        1.7080597162
  C         0.3331156468        1.3286086967        0.1416478905
  C         0.0878554240        0.8472293346       -1.0876564587
  C        -2.0773235593       -0.8532509365       -0.7123872115
  N         2.0926996245       -0.1321497988       -0.3696575631
  C         1.2117086864       -0.0295547849       -1.5274405736
  O         1.4179050044       -0.5417891066       -2.6009873266
  C         1.6435296101        0.8201603425        0.6410868881
  O         2.2642562998        1.1171673457        1.6317862983
  C         3.5008295733       -0.4300041438       -0.5295434251
      24
 i =       8, E =     -144.1760937080
  O        -2.6644216047        2.1516620644       -0.3387478198
  O        -4.3794744224        0.1510122128        0.7839284594
  S        -2.8337440438        0.6087479864        0.3026667297
  H        -0.1801468925        2.1518585537        0.6654820916
  H        -0.6720028363        1.1802565472       -1.8119310541
  H         3.9164665003       -0.6750684191        0.4621766518
  H         3.5939977973       -1.3142115265       -1.1836811939
  H         4.0722553078        0.3995669901       -0.9618840118
 Cl        -1.2302312483       -3.3307217508       -0.1873032508
 Cl        -0.6593481848       -2.1817435668        2.7151862171
 Cl        -1.4284554522        1.0410167307        3.0506639996
 Cl        -2.4772122838       -1.0752114216       -2.2956421559
  C        -1.5484523861       -1.7247950003        0.1738055563
  C        -1.2861041860       -1.1951073706        1.5129868578
  C        -1.6472600300        0.0806051814        1.7325550113
  C         0.3606774771        1.3763699956        0.1158714918
  C         0.1167849012        0.8954517537       -1.1100873457
  C        -2.1236071381       -0.8801981658       -0.6986931952
  N         2.0901986338       -0.1664144296       -0.3554945777
  C         1.2170938191       -0.0273547997       -1.5224830922
  O         1.4146332865       -0.5552115099       -2.6003038375
  C         1.6453162600        0.8180608702        0.6342341488
  O         2.2615125289        1.1083439064        1.6422203107
  C         3.5089919151       -0.4409060468       -0.5279123526
      24
 i =       9, E =     -144.1767246204
  O        -2.6648004551        2.1511450213       -0.3384774613
  O        -4.3800539172        0.1518993763        0.7836994082
  S        -2.8347409369        0.6086754172        0.3028992091
  H        -0.1804915533        2.1507324895        0.6651645084
  H        -0.6720501054        1.1796387542       -1.8109359701
  H         3.9170541971       -0.6758166564        0.4619310449
  H         3.5947642439       -1.3147275367       -1.1832690252
  H         4.0719643560        0.3985077703       -0.9614597116
 Cl        -1.2284569541       -3.3305588782       -0.1871664619
 Cl        -0.6577536864       -2.1819774380        2.7144050465
 Cl        -1.4287547557        1.0406827372        3.0502401650
 Cl        -2.4773021715       -1.0751515179       -2.2951004286
  C        -1.5493513526       -1.7246621234        0.1738874941
  C        -1.2870222521       -1.1948351128        1.5131175122
  C        -1.6488316290        0.0799062925        1.7326110268
  C         0.3614339978        1.3793003934        0.1162002915
  C         0.1169720940        0.8973159049       -1.1125627438
  C        -2.1250154811       -0.8804410550       -0.6977096822
  N         2.0892040833       -0.1675497815       -0.3549345697
  C         1.2184690842       -0.0286526283       -1.5269060375
  O         1.4135159483       -0.5541606813       -2.5958139109
  C         1.6487008771        0.8200865846        0.6383551447
  O         2.2583858170        1.1062028899        1.6383421213
  C         3.5086993182       -0.4418054338       -0.5274702549
      24
 i =      10, E =     -144.1780253972
  O        -2.6674661763        2.1480017552       -0.3367653899
  O        -4.3850371652        0.1579095249        0.7823591401
  S        -2.8411766091        0.6080111383        0.3044970397
  H        -0.1843522708        2.1452011214        0.6643500776
  H        -0.6745337284        1.1763248965       -1.8060370758
  H         3.9211369972       -0.6812970054        0.4606932377
  H         3.5999781311       -1.3187269647       -1.1804498157
  H         4.0699505422        0.3911446756       -0.9585060455
 Cl        -1.2160694177       -3.3290095140       -0.1862255853
 Cl        -0.6466823082       -2.1832700021        2.7086683342
 Cl        -1.4308934746        1.0384689267        3.0473919886
 Cl        -2.4779927656       -1.0746602075       -2.2912812814
  C        -1.5549008870       -1.7247520490        0.1754199195
  C        -1.2927740158       -1.1948787844        1.5138864246
  C        -1.6599444278        0.0766909178        1.7335900008
  C         0.3691409326        1.3926691037        0.1091547790
  C         0.1246691848        0.9109659214       -1.1192552594
  C        -2.1352701090       -0.8816356368       -0.6923044440
  N         2.0834743978       -0.1754374616       -0.3509125567
  C         1.2205980942       -0.0195628936       -1.5228252985
  O         1.4114528349       -0.5618396616       -2.5946323360
  C         1.6478195083        0.8243092314        0.6288269297
  O         2.2569434059        1.1004912263        1.6442674287
  C         3.5052351173       -0.4477034883       -0.5244746311
      24
 i =      11, E =     -144.1785276439
  O        -2.6677881643        2.1479658569       -0.3366976838
  O        -4.3866030104        0.1586596918        0.7823752725
  S        -2.8417710777        0.6077776805        0.3047282105
  H        -0.1851090588        2.1451108633        0.6646086127
  H        -0.6753005697        1.1761532529       -1.8059615297
  H         3.9216589236       -0.6821409656        0.4608325352
  H         3.6005624857       -1.3194974922       -1.1801623018
  H         4.0695747037        0.3902857153       -0.9581349974
 Cl        -1.2143314577       -3.3284977053       -0.1860925218
 Cl        -0.6451789047       -2.1832140012        2.7076475103
 Cl        -1.4312924251        1.0382803178        3.0471403187
 Cl        -2.4782334933       -1.0745823712       -2.2908330690
  C        -1.5555395486       -1.7252568456        0.1758166103
  C        -1.2933759456       -1.1955750674        1.5141891714
  C        -1.6614497219        0.0765510885        1.7340864983
  C         0.3700900454        1.3943243809        0.1078084878
  C         0.1258167578        0.9129494804       -1.1198082495
  C        -2.1367707122       -0.8819205991       -0.6920124489
  N         2.0831533944       -0.1762447487       -0.3504368253
  C         1.2217648133       -0.0216899806       -1.5280859495
  O         1.4103935609       -0.5604659446       -2.5899515708
  C         1.6512825830        0.8261104487        0.6338083831
  O         2.2538790846        1.0985158914        1.6401939233
  C         3.5048266525       -0.4485289500       -0.5241320277
      24
 i =      12, E =     -144.1787983453
  O        -2.6681959346        2.1478610217       -0.3365883964
  O        -4.3884905714        0.1596507117        0.7823614860
  S        -2.8426783661        0.6074922410        0.3050455217
  H        -0.1860166391        2.1449466648        0.6648342834
  H        -0.6761807174        1.1759577752       -1.8057820230
  H         3.9222984504       -0.6832247123        0.4609838287
  H         3.6012905680       -1.3204821868       -1.1797783587
  H         4.0691074054        0.3891876219       -0.9576637533
 Cl        -1.2121126778       -3.3278909292       -0.1859509283
 Cl        -0.6432402146       -2.1831660417        2.7063995477
 Cl        -1.4318023231        1.0380770017        3.0468756108
 Cl        -2.4785649636       -1.0744912135       -2.2903233611
  C        -1.5564691136       -1.7256834388        0.1761529991
  C        -1.2942674111       -1.1960517751        1.5145889391
  C        -1.6632442108        0.0759725070        1.7345907193
  C         0.3717759130        1.3963010099        0.1065410988
  C         0.1275709512        0.9150476188       -1.1208452884
  C        -2.1385225465       -0.8824415368       -0.6913956640
  N         2.0827828520       -0.1772559000       -0.3498731732
  C         1.2218871046       -0.0203586593       -1.5270741855
  O         1.4102146149       -0.5620475592       -2.5905048992
  C         1.6508479064        0.8264015813        0.6321200505
  O         2.2540634148        1.0978129039        1.6418070700
  C         3.5042698047       -0.4495734385       -0.5236691415
      24
 i =      13, E =     -144.1808369559
  O        -2.6728871774        2.1457583818       -0.3349767641
  O        -4.4098826975        0.1718487589        0.7818349434
  S        -2.8552632962        0.6044524272        0.3090197107
  H        -0.1951724104        2.1421164994        0.6664260535
  H        -0.6846948292        1.1735275355       -1.8028284405
  H         3.9295198063       -0.6959113340        0.4625013486
  H         3.6096019985       -1.3319827397       -1.1751780211
  H         4.0635098259        0.3764594137       -0.9521796583
 Cl        -1.1857202983       -3.3211298919       -0.1844614180
 Cl        -0.6200274264       -2.1828422045        2.6920337744
 Cl        -1.4380970042        1.0358297093        3.0441122347
 Cl        -2.4829137769       -1.0735262057       -2.2847119246
  C        -1.5680424257       -1.7297663442        0.1799004380
  C        -1.3055973605       -1.2003001557        1.5189601113
  C        -1.6841660187        0.0675392114        1.7402945903
  C         0.3890861441        1.4223788976        0.0941241084
  C         0.1443924289        0.9407098700       -1.1359851077
  C        -2.1587635478       -0.8894065730       -0.6829893380
  N         2.0771830668       -0.1882513010       -0.3438477476
  C         1.2282239051       -0.0160553176       -1.5347820045
  O         1.4051730461       -0.5719225449       -2.5803758099
  C         1.6590839683        0.8343203258        0.6330309908
  O         2.2459615379        1.0851691319        1.6435265444
  C         3.4997725060       -0.4624079523       -0.5180684872
      24
 i =      14, E =     -144.1813903011
  O        -2.6729842715        2.1452392548       -0.3347538052
  O        -4.4106794498        0.1727316387        0.7816483831
  S        -2.8565977446        0.6043334309        0.3093281324
  H        -0.1950785111        2.1420798950        0.6662211597
  H        -0.6845525023        1.1736352568       -1.8027497275
  H         3.9298195541       -0.6964141705        0.4625199120
  H         3.6099322199       -1.3324216122       -1.1749978866
  H         4.0633545611        0.3761154144       -0.9520469978
 Cl        -1.1844847513       -3.3209820075       -0.1844544217
 Cl        -0.6188742525       -2.1829393687        2.6915543829
 Cl        -1.4385844689        1.0357376804        3.0441547463
 Cl        -2.4833658643       -1.0735530545       -2.2845547679
  C        -1.5685674746       -1.7300189036        0.1804289713
  C        -1.3062753629       -1.2007426699        1.5188878618
  C        -1.6852257170        0.0673126921        1.7407394784
  C         0.3897778701        1.4228930124        0.0925558063
  C         0.1455997131        0.9419309604       -1.1354310949
  C        -2.1598435700       -0.8897446290       -0.6827108033
  N         2.0771504235       -0.1883571948       -0.3438499311
  C         1.2275698271       -0.0126470719       -1.5293319473
  O         1.4059981046       -0.5749878447       -2.5850944658
  C         1.6558581415        0.8332432501        0.6268453934
  O         2.2489785633        1.0860475420        1.6489947591
  C         3.4999616877       -0.4629561625       -0.5178413174
      24
 i =      15, E =     -144.1816071187
  O        -2.6732410184        2.1439866886       -0.3342108494
  O        -4.4131449678        0.1749408088        0.7812743559
  S        -2.8597291575        0.6039908835        0.3100780264
  H        -0.1946274250        2.1418358335        0.6655590561
  H        -0.6838653409        1.1738395635       -1.8023799653
  H         3.9305641271       -0.6977588460        0.4626736415
  H         3.6107261840       -1.3336212244       -1.1745343295
  H         4.0629107565        0.3751869339       -0.9516775039
 Cl        -1.1812306310       -3.3205456932       -0.1844427067
 Cl        -0.6158566912       -2.1831348383        2.6902417850
 Cl        -1.4398734139        1.0354949862        3.0442713973
 Cl        -2.4845565457       -1.0736240758       -2.2841128084
  C        -1.5701331656       -1.7305957169        0.1813034604
  C        -1.3080550473       -1.2014660536        1.5190975542
  C        -1.6879372461        0.0663436134        1.7418196679
  C         0.3909066285        1.4259275658        0.0909002788
  C         0.1469510990        0.9449083260       -1.1366651015
  C        -2.1625634944       -0.8908340071       -0.6817708270
  N         2.0769576821       -0.1885359496       -0.3438424491
  C         1.2290272999       -0.0135407673       -1.5326111597
  O         1.4054666979       -0.5748104022       -2.5822650143
  C         1.6585579827        0.8346116980        0.6295360552
  O         2.2472773413        1.0844215056        1.6469767482
  C         3.5005514748       -0.4644128113       -0.5172964432
      24
 i =      16, E =     -144.1821424986
  O        -2.6737754947        2.1414882861       -0.3331170093
  O        -4.4192212154        0.1795601417        0.7806749586
  S        -2.8656506176        0.6031202753        0.3116026375
  H        -0.1939681890        2.1418532047        0.6643756679
  H        -0.6827287881        1.1745265320       -1.8019620183
  H         3.9323281655       -0.7006059729        0.4630820435
  H         3.6125578263       -1.3361789260       -1.1736222376
  H         4.0621360686        0.3732470720       -0.9509308096
 Cl        -1.1742897659       -3.3196183103       -0.1843976139
 Cl        -0.6094815183       -2.1834821499        2.6873492056
 Cl        -1.4427135727        1.0349230642        3.0445726208
 Cl        -2.4871769589       -1.0738136020       -2.2830782109
  C        -1.5737023805       -1.7318008188        0.1827417338
  C        -1.3118311065       -1.2028080380        1.5200657477
  C        -1.6938437217        0.0640051461        1.7440637980
  C         0.3948421110        1.4313996185        0.0874202670
  C         0.1512064506        0.9503786053       -1.1391192705
  C        -2.1684490665       -0.8933761155       -0.6796644004
  N         2.0772287127       -0.1889544005       -0.3437998085
  C         1.2301652988       -0.0093874327       -1.5292345955
  O         1.4058942518       -0.5791133581       -2.5850863625
  C         1.6575418249        0.8352463503        0.6238746994
  O         2.2492311589        1.0832923955        1.6521186461
  C         3.5011952470       -0.4671337423       -0.5162939100
      24
 i =      17, E =     -144.1823530280
  O        -2.6738200989        2.1411581893       -0.3329780370
  O        -4.4209270445        0.1803876498        0.7806858837
  S        -2.8662915673        0.6027736114        0.3118725781
  H        -0.1938534890        2.1421276052        0.6642360612
  H        -0.6825340718        1.1747789301       -1.8020769928
  H         3.9327438914       -0.7010753926        0.4631731874
  H         3.6129660213       -1.3366074563       -1.1735096643
  H         4.0621145939        0.3729371922       -0.9508287487
 Cl        -1.1730301616       -3.3193809336       -0.1843589997
 Cl        -0.6083670446       -2.1834810696        2.6867270282
 Cl        -1.4433422039        1.0347586152        3.0446546323
 Cl        -2.4877506473       -1.0738910592       -2.2827976238
  C        -1.5744441963       -1.7321799121        0.1828430564
  C        -1.3125010834       -1.2030509755        1.5205515581
  C        -1.6950632348        0.0634747029        1.7444986529
  C         0.3957734497        1.4324664636        0.0872190335
  C         0.1519128869        0.9512068523       -1.1400320890
  C        -2.1696841321       -0.8938912152       -0.6792759791
  N         2.0774743753       -0.1889207446       -0.3438043003
  C         1.2311368041       -0.0108261646       -1.5327118187
  O         1.4054328751       -0.5779162865       -2.5821406481
  C         1.6599601321        0.8364136674        0.6271451576
  O         2.2474414366        1.0822481831        1.6492095180
  C         3.5012436550       -0.4674380521       -0.5162235583
      24
 i =      18, E =     -144.1824712505
  O        -2.6739003775        2.1404050890       -0.3326642777
  O        -4.4242001886        0.1821676618        0.7806323679
  S        -2.8678763416        0.6020384681        0.3124836412
  H        -0.1936195987        2.1427157098        0.6639187318
  H        -0.6821832651        1.1753519452       -1.8023481895
  H         3.9335781891       -0.7020195833        0.4632818342
  H         3.6138091954       -1.3374481205       -1.1732549589
  H         4.0621222298        0.3723031033       -0.9506304783
 Cl        -1.1704515529       -3.3189041573       -0.1842899884
 Cl        -0.6060724460       -2.1834897850        2.6854819511
 Cl        -1.4446516283        1.0344221955        3.0448357907
 Cl        -2.4889544559       -1.0740583611       -2.2822464843
  C        -1.5759203470       -1.7328837589        0.1832546465
  C        -1.3139057696       -1.2036831461        1.5213053167
  C        -1.6975725498        0.0624595924        1.7454014479