      24
 i =       0, E =     -144.0251456945
  O        -2.3667498546        1.6904940664       -0.2167754745
  O        -4.1507378429        0.3460158213        0.6526694652
  S        -2.7679114430        0.4770098806        0.3376916738
  H         0.2038462243        2.1104561561        0.6022941965
  H        -0.3003410230        1.1671958122       -1.8458457759
  H         4.3491657103       -0.1099997269        0.1450228852
  H         4.0191651393       -0.7294904707       -1.5011249686
  H         4.3544618525        0.9597996957       -1.2295178049
 Cl        -1.6899076538       -3.4638462244       -0.0489470990
 Cl        -1.1147299735       -2.3076614337        2.8621424221
 Cl        -1.5847231135        0.9010009034        3.1196538842
 Cl        -2.6294947909       -1.2110088425       -2.1998150350
  C        -1.8713005644       -1.8643352570        0.3057943218
  C        -1.6140770147       -1.3412719572        1.6213770407
  C        -1.7544546943       -0.0082519520        1.7454303976
  C         0.6728338127        1.3988165635        0.0758351477
  C         0.4137187636        0.9127281118       -1.1838167949
  C        -2.2137402614       -0.9474961864       -0.6169586984
  N         2.4911280420        0.2983137001       -0.6175305252
  C         1.5913603326        0.2704998811       -1.6975613165
  O         1.7886752614       -0.2091915770       -2.7885841496
  C         2.0312572235        1.0966820761        0.4401027402
  O         2.6597287606        1.4202949679        1.4221791688
  C         3.8798893943        0.1015809099       -0.8152063740
      24
 i =       1, E =     -144.1207958532
  O        -2.3232344440        1.8289444982       -0.2797500028
  O        -4.2893392003        0.3357290129        0.6831079106
  S        -2.7099437684        0.4194500023        0.3493462821
  H         0.1734603740        2.1404812728        0.6290947522
  H        -0.3390361112        1.1757346566       -1.8704337534
  H         4.3566354073       -0.1088393050        0.1453891331
  H         4.0262893708       -0.7303767129       -1.5058188880
  H         4.3659149771        0.9794855028       -1.2394675400
 Cl        -1.6907723365       -3.4763998577       -0.0477694711
 Cl        -1.1146069334       -2.3167548128        2.8691621422
 Cl        -1.5840036351        0.9001336276        3.1164285301
 Cl        -2.6276066996       -1.2099513441       -2.1976458436
  C        -1.8683453656       -1.8695893741        0.2923701805
  C        -1.6059406050       -1.3368544709        1.6338253341
  C        -1.7474331531       -0.0287422118        1.7851575555
  C         0.6634171464        1.3820456678        0.0196383286
  C         0.4253117870        0.9387636694       -1.1316360611
  C        -2.2176471774       -0.9886813998       -0.6326847177
  N         2.5244205412        0.2790568308       -0.6176201102
  C         1.5935186234        0.2567192486       -1.7255442424
  O         1.7969552159       -0.2106116523       -2.7967578333
  C         2.0434547053        1.1051649594        0.4685151679
  O         2.6686776847        1.4230787552        1.4242714979
  C         3.9053572541        0.0922357257       -0.8165848199
      24
 i =       2, E =     -144.1399501404
  O        -2.3161769994        1.8566960890       -0.2920653353
  O        -4.3169292461        0.3343886669        0.6889386252
  S        -2.7132604889        0.4382956062        0.3424311257
  H         0.1672272962        2.1381440994        0.6292426730
  H        -0.3444516148        1.1748315473       -1.8667116733
  H         4.3620911459       -0.1103272454        0.1478132242
  H         4.0310381453       -0.7338605439       -1.5087965848
  H         4.3705533388        0.9843131027       -1.2423639634
 Cl        -1.6896939738       -3.4838130619       -0.0464708059
 Cl        -1.1130609324       -2.3231205343        2.8727856679
 Cl        -1.5825595262        0.9024699007        3.1184163425
 Cl        -2.6271564508       -1.2099984858       -2.2012034914
  C        -1.8599427481       -1.8825452625        0.2997528557
  C        -1.5988584399       -1.3525439512        1.6345342058
  C        -1.7477381158       -0.0288041281        1.7999754921
  C         0.6683636682        1.4201691545        0.0811611774
  C         0.4055537597        0.9262855222       -1.1987938839
  C        -2.2227560668       -0.9979486762       -0.6420641240
  N         2.5256705353        0.2727654541       -0.6149629250
  C         1.5954147615        0.2606563179       -1.7084015186
  O         1.8009472498       -0.2180905428       -2.8157164295
  C         2.0375473891        1.0957809837        0.4515043397
  O         2.6803153077        1.4297900633        1.4418967300
  C         3.9215646116        0.0929978042       -0.8203197751
      24
 i =       3, E =     -144.1540490978
  O        -2.3113306144        1.8755898789       -0.3004571303
  O        -4.3321527047        0.3338671736        0.6920746607
  S        -2.7187968122        0.4506006927        0.3386121519
  H         0.1559194695        2.1466966518        0.6378237176
  H        -0.3584803367        1.1770967593       -1.8737244128
  H         4.3666651417       -0.1112586924        0.1491273212
  H         4.0351717030       -0.7360588234       -1.5109764964
  H         4.3745249475        0.9883153257       -1.2447970581
 Cl        -1.6886647547       -3.4906335242       -0.0455497713
 Cl        -1.1114970032       -2.3288590274        2.8763353516
 Cl        -1.5813613502        0.9045475017        3.1210603801
 Cl        -2.6271112313       -1.2105596515       -2.2048123907
  C        -1.8567499239       -1.8858562308        0.2983744396
  C        -1.5950452977       -1.3545144786        1.6364843105
  C        -1.7486811429       -0.0371891588        1.8057428025
  C         0.6640443400        1.4108385793        0.0476953931
  C         0.4148000688        0.9414502307       -1.1683779516
  C        -2.2244475542       -1.0074575421       -0.6399116962
  N         2.5284025655        0.2675439268       -0.6135893954
  C         1.5996837975        0.2524100982       -1.7240441359
  O         1.8013959402       -0.2144115513       -2.8073290269
  C         2.0487501871        1.0995659448        0.4671674252
  O         2.6760432190        1.4266953729        1.4324441680
  C         3.9295884896        0.0934751384       -0.8222002739
      24
 i =       4, E =     -144.1617517916
  O        -2.3050238990        1.9006727739       -0.3115629657
  O        -4.3504404628        0.3336414205        0.6957007253
  S        -2.7286188758        0.4680265264        0.3336425082
  H         0.1462853761        2.1482229659        0.6415896639
  H        -0.3682358244        1.1770253077       -1.8734033050
  H         4.3738706714       -0.1125336762        0.1502714324
  H         4.0419563507       -0.7387574407       -1.5138587225
  H         4.3805381412        0.9936733063       -1.2482233134
 Cl        -1.6868713815       -3.5008034873       -0.0438984882
 Cl        -1.1090170310       -2.3376436285        2.8813487930
 Cl        -1.5795888318        0.9069392971        3.1244475496
 Cl        -2.6267585235       -1.2115137426       -2.2092771694
  C        -1.8511062958       -1.8926538389        0.2997039718
  C        -1.5893660660       -1.3612590175        1.6381323759
  C        -1.7519954855       -0.0443718885        1.8129689044
  C         0.6650178156        1.4252840577        0.0547940784
  C         0.4120471744        0.9474326928       -1.1823248550
  C        -2.2289930843       -1.0167477591       -0.6388154829
  N         2.5351824207        0.2594149918       -0.6117632019
  C         1.5996853782        0.2561129003       -1.7124649720
  O         1.8056453994       -0.2196937296       -2.8200371302
  C         2.0431351760        1.0945398668        0.4558986706
  O         2.6849447251        1.4307668397        1.4437329186
  C         3.9387523970        0.0941033759       -0.8245054544
      24
 i =       5, E =     -144.1667284576
  O        -2.3020359460        1.9125127766       -0.3168009107
  O        -4.3582328757        0.3340572553        0.6970487838
  S        -2.7344645265        0.4768115294        0.3313407761
  H         0.1402761893        2.1501345597        0.6446749402
  H        -0.3746679641        1.1772114057       -1.8743004920
  H         4.3782351723       -0.1129048799        0.1501709239
  H         4.0462656393       -0.7395870847       -1.5153116224
  H         4.3839264275        0.9963010011       -1.2500092351
 Cl        -1.6858088813       -3.5065754188       -0.0427775613
 Cl        -1.1076279261       -2.3427696202        2.8840526832
 Cl        -1.5786874498        0.9077371554        3.1260689655
 Cl        -2.6264580955       -1.2122258607       -2.2111064451
  C        -1.8485914521       -1.8957108174        0.3000485424
  C        -1.5867330038       -1.3641515930        1.6391123142
  C        -1.7548225868       -0.0481502754        1.8155107936
  C         0.6641409604        1.4282169360        0.0471071852
  C         0.4137959546        0.9546600794       -1.1785712870
  C        -2.2320123326       -1.0207473289       -0.6372012084
  N         2.5371492155        0.2553994224       -0.6106808269
  C         1.6033330572        0.2505252599       -1.7244855416
  O         1.8051993780       -0.2156373400       -2.8109370809
  C         2.0517455302        1.0979259463        0.4671080478
  O         2.6799978926        1.4277766480        1.4344338082
  C         3.9442409485        0.0945461399       -0.8258817463
      24
 i =       6, E =     -144.1707381782
  O        -2.2979794945        1.9289733713       -0.3240563338
  O        -4.3688521138        0.3350935965        0.6987108575
  S        -2.7432491816        0.4897260279        0.3279915177
  H         0.1322594469        2.1511363628        0.6476586849
  H        -0.3826190971        1.1770429630       -1.8737475482
  H         4.3853674422       -0.1133244800        0.1495491494
  H         4.0534015766       -0.7404272033       -1.5174695152
  H         4.3892207123        1.0000567976       -1.2527286641
 Cl        -1.6841020268       -3.5152134970       -0.0408764624
 Cl        -1.1055026185       -2.3506316769        2.8879365295
 Cl        -1.5773948945        0.9084483329        3.1281838128
 Cl        -2.6259002340       -1.2134334708       -2.2133351631
  C        -1.8450706724       -1.9002422725        0.3007088926
  C        -1.5830859070       -1.3685083560        1.6404916033
  C        -1.7598173849       -0.0532637781        1.8186943929
  C         0.6668221494        1.4370134550        0.0460736242
  C         0.4158439180        0.9615219584       -1.1841534724
  C        -2.2370945723       -1.0258665610       -0.6344125508
  N         2.5409093702        0.2492850422       -0.6093478470
  C         1.6033428310        0.2556462781       -1.7135769426
  O         1.8088226270       -0.2195528203       -2.8203696044
  C         2.0467708214        1.0948492605        0.4565156299
  O         2.6866633523        1.4305954603        1.4421992488
  C         3.9511445496        0.0954636539       -0.8277688476
      24
 i =       7, E =     -144.1731050713
  O        -2.2966315886        1.9348419696       -0.3266206160
  O        -4.3725820327        0.3357827595        0.6991696962
  S        -2.7465875448        0.4944367886        0.3267975177
  H         0.1291996189        2.1513613525        0.6487473514
  H        -0.3856118977        1.1768966832       -1.8734084433
  H         4.3884388192       -0.1133529396        0.1490004333
  H         4.0565472460       -0.7404912731       -1.5182963477
  H         4.3913571285        1.0014165043       -1.2537727274
 Cl        -1.6833620318       -3.5185511552       -0.0399925035
 Cl        -1.1046571500       -2.3537804470        2.8893039590
 Cl        -1.5769433456        0.9084175330        3.1287985735
 Cl        -2.6256245797       -1.2139959710       -2.2138710048
  C        -1.8439194399       -1.9018887534        0.3009588407
  C        -1.5818789884       -1.3700922649        1.6410326957
  C        -1.7621342634       -0.0551288275        1.8196324136
  C         0.6668534795        1.4404244004        0.0441877813
  C         0.4162652901        0.9652696856       -1.1849557795
  C        -2.2393335575       -1.0275153042       -0.6330532929
  N         2.5422583053        0.2469020335       -0.6087095862
  C         1.6057801248        0.2526604598       -1.7209380621
  O         1.8084496381       -0.2167849731       -2.8141595054
  C         2.0518504070        1.0970665530        0.4625550262
  O         2.6835906530        1.4287330650        1.4363995603
  C         3.9539168397        0.0958704298       -0.8285480036
      24
 i =       8, E =     -144.1839635685
  O        -2.2795291280        2.0122653351       -0.3602786828
  O        -4.4220408752        0.3469707950        0.7044773524
  S        -2.7917042763        0.5576650034        0.3108342595
  H         0.0872466435        2.1531174040        0.6621652188
  H        -0.4259129750        1.1748984701       -1.8669293710
  H         4.4327029826       -0.1133837292        0.1397693849
  H         4.1021719942       -0.7401559648       -1.5295260051
  H         4.4215622943        1.0196531959       -1.2682734185
 Cl        -1.6728044044       -3.5638143536       -0.0270629590
 Cl        -1.0929955002       -2.3972386027        2.9070835790
 Cl        -1.5711027964        0.9063394008        3.1361285775
 Cl        -2.6215807547       -1.2221577451       -2.2193156499
  C        -1.8294358848       -1.9239164574        0.3047082289
  C        -1.5667774726       -1.3912219452        1.6482540612
  C        -1.7956142791       -0.0804301626        1.8314059628
  C         0.6796540489        1.4864468792        0.0233193812
  C         0.4316909423        1.0112767454       -1.2031979598
  C        -2.2713465106       -1.0489613648       -0.6133647771
  N         2.5608164226        0.2145691666       -0.6003120468
  C         1.6168648578        0.2645259706       -1.7095504616
  O         1.8212164344       -0.2189472196       -2.8213807360
  C         2.0552560912        1.0975244358        0.4439863043
  O         2.6950422580        1.4304942526        1.4384610545
  C         3.9896755623        0.1028618401       -0.8392164283
      24
 i =       9, E =     -144.1861245628
  O        -2.2802833412        2.0111196165       -0.3596550150
  O        -4.4214822786        0.3490524664        0.7035688091
  S        -2.7924006249        0.5577724014        0.3108939185
  H         0.0875821326        2.1515042844        0.6608917393
  H        -0.4248738564        1.1744958359       -1.8651374550
  H         4.4356568114       -0.1123950462        0.1378959743
  H         4.1054455698       -0.7385511992       -1.5300078899
  H         4.4228501695        1.0200265258       -1.2687610484
 Cl        -1.6724438470       -3.5642333099       -0.0259398132
 Cl        -1.0929263703       -2.3984528685        2.9065921485
 Cl        -1.5714453626        0.9047080736        3.1353416042
 Cl        -2.6214078967       -1.2228226853       -2.2176525831
  C        -1.8306234128       -1.9241583755        0.3050123621
  C        -1.5680660305       -1.3912087087        1.6484095978
  C        -1.7975655909       -0.0809294126        1.8309921609
  C         0.6799523197        1.4899270255        0.0248385651
  C         0.4309656538        1.0129212665       -1.2065154328
  C        -2.2729711764       -1.0487579990       -0.6120318970
  N         2.5616698645        0.2143985799       -0.6003222381
  C         1.6201548574        0.2610925272       -1.7207496317
  O         1.8201624039       -0.2142710573       -2.8115581772
  C         2.0624123370        1.1016739547        0.4523218269
  O         2.6902158973        1.4278828580        1.4296287983
  C         3.9902145087        0.1035407380       -0.8396570449
      24
 i =      10, E =     -144.1871678154
  O        -2.2852706818        2.0046736105       -0.3559646254
  O        -4.4195619368        0.3633337916        0.6977109031
  S        -2.7964831690        0.5577652552        0.3114952244
  H         0.0868621792        2.1436937473        0.6550497959
  H        -0.4220247417        1.1727243006       -1.8558775656
  H         4.4560866985       -0.1059597022        0.1254741882
  H         4.1279305342       -0.7281691607       -1.5334844693
  H         4.4316303470        1.0224464186       -1.2720393842
 Cl        -1.6697201489       -3.5668049761       -0.0182755232
 Cl        -1.0923232578       -2.4063959051        2.9027882963
 Cl        -1.5737665216        0.8939011293        3.1303383429
 Cl        -2.6203554413       -1.2273368810       -2.2066938058
  C        -1.8385679834       -1.9260701689        0.3077869738
  C        -1.5766714473       -1.3925211917        1.6494010918
  C        -1.8107333810       -0.0837968235        1.8286328254
  C         0.6883210422        1.5023326935        0.0179530802
  C         0.4395268374        1.0258633031       -1.2124012646
  C        -2.2840196595       -1.0476771954       -0.6035624275
  N         2.5670567469        0.2133394555       -0.6003139039
  C         1.6250277728        0.2761364870       -1.7144093756
  O         1.8264910449       -0.2136634131       -2.8149947027
  C         2.0626569030        1.1078709789        0.4361836202
  O         2.6972094812        1.4300145759        1.4307998882
  C         3.9936220090        0.1087527545       -0.8427043138
      24
 i =      11, E =     -144.1882448281
  O        -2.2856185142        2.0050439508       -0.3560231214
  O        -4.4210640059        0.3652865309        0.6972501708
  S        -2.7964566200        0.5571997485        0.3117032683
  H         0.0862262506        2.1434291633        0.6549272046
  H        -0.4225107130        1.1727262787       -1.8554357380
  H         4.4588099465       -0.1051679356        0.1242389585
  H         4.1307663903       -0.7271206317       -1.5342055183
  H         4.4326006892        1.0230162284       -1.2725266761
 Cl        -1.6692691576       -3.5669233480       -0.0172719798
 Cl        -1.0922506109       -2.4071504311        2.9019655328
 Cl        -1.5740881574        0.8928645421        3.1301313696
 Cl        -2.6204123236       -1.2279375916       -2.2057333430
  C        -1.8396249724       -1.9265998899        0.3085075410
  C        -1.5777536528       -1.3934414280        1.6497293884
  C        -1.8121773421       -0.0843417684        1.8287711275
  C         0.6890991297        1.5038349104        0.0166355460
  C         0.4404616887        1.0277756003       -1.2127732143
  C        -2.2853214866       -1.0480709829       -0.6028339515
  N         2.5670957494        0.2133861211       -0.6004561721
  C         1.6277477464        0.2733299164       -1.7230203517
  O         1.8259329996       -0.2101769443       -2.8081689005
  C         2.0689968710        1.1113289109        0.4437986123
  O         2.6933983566        1.4280751715        1.4235924986
  C         3.9954114383        0.1095327404       -0.8433717608
      24
 i =      12, E =     -144.1884421351
  O        -2.2861116024        2.0053672642       -0.3560261881
  O        -4.4227531777        0.3677880980        0.6966161161
  S        -2.7966798314        0.5566567238        0.3119477326
  H         0.0854414564        2.1430588861        0.6546742798
  H        -0.4230660295        1.1727616667       -1.8547924773
  H         4.4622716088       -0.1041910138        0.1226947251
  H         4.1343675487       -0.7258213299       -1.5351128092
  H         4.4338840544        1.0238191739       -1.2731824317
 Cl        -1.6686780509       -3.5671105008       -0.0160269533
 Cl        -1.0921171943       -2.4081408063        2.9009822416
 Cl        -1.5744919735        0.8915892677        3.1299173033
 Cl        -2.6205027119       -1.2287013709       -2.2045816693
  C        -1.8409913942       -1.9272502529        0.3092969485
  C        -1.5791558445       -1.3943531442        1.6501949591
  C        -1.8139420036       -0.0852220687        1.8289238566
  C         0.6909600109        1.5055611352        0.0154221354
  C         0.4424080230        1.0296543979       -1.2136403491
  C        -2.2869140679       -1.0486300733       -0.6018492005
  N         2.5678909780        0.2133804329       -0.6006251594
  C         1.6286650101        0.2755780292       -1.7216328813
  O         1.8271766492       -0.2104672080       -2.8099319207
  C         2.0689378783        1.1120146002        0.4410663879
  O         2.6952389261        1.4289085803        1.4248587318
  C         3.9970296194        0.1104729825       -0.8441019120
      24
 i =      13, E =     -144.1892716131
  O        -2.2924261623        2.0072673169       -0.3552235436
  O        -4.4403745747        0.3975568619        0.6886109619
  S        -2.8024464952        0.5528880330        0.3143767575
  H         0.0779857139        2.1374966530        0.6501455354
  H        -0.4272531410        1.1730354925       -1.8460750599
  H         4.5028828891       -0.0925749067        0.1046399004
  H         4.1765484678       -0.7104622465       -1.5458649859
  H         4.4490381484        1.0342767157       -1.2812805992
 Cl        -1.6614679519       -3.5698376049       -0.0015200439
 Cl        -1.0900869964       -2.4203512260        2.8900423986
 Cl        -1.5793153909        0.8769170760        3.1279621165
 Cl        -2.6218893100       -1.2378535712       -2.1917974370
  C        -1.8573792023       -1.9352546371        0.3177988560
  C        -1.5959388225       -1.4040482863        1.6560455143
  C        -1.8344554343       -0.0962490124        1.8310788641
  C         0.7089968403        1.5292400983        0.0050252650
  C         0.4593844505        1.0523692318       -1.2277009728
  C        -2.3054875010       -1.0556480883       -0.5899764552
  N         2.5803071498        0.2132166849       -0.6033050515
  C         1.6458485902        0.2875404671       -1.7353448828
  O         1.8372295667       -0.2024911239       -2.8058865512
  C         2.0886167125        1.1289651322        0.4398598425
  O         2.7007198733        1.4308253417        1.4143403608
  C         4.0148322853        0.1207043792       -0.8522346251
      24
 i =      14, E =     -144.1902940064
  O        -2.2929471447        2.0065998534       -0.3548415438
  O        -4.4403219925        0.3991657926        0.6879892352
  S        -2.8040300114        0.5535595600        0.3144123873
  H         0.0780140823        2.1373260137        0.6497398404
  H        -0.4270648854        1.1731991434       -1.8457497802
  H         4.5045534011       -0.0920136505        0.1038823968
  H         4.1782619065       -0.7097723574       -1.5463557880
  H         4.4496546599        1.0350622557       -1.2817383966
 Cl        -1.6610087501       -3.5702967282       -0.0009991522
 Cl        -1.0897373446       -2.4211685509        2.8899318771
 Cl        -1.5795639452        0.8765097977        3.1282752244
 Cl        -2.6221581796       -1.2383566789       -2.1917461903
  C        -1.8581586848       -1.9358427383        0.3180702564
  C        -1.5967423984       -1.4045321439        1.6563308433
  C        -1.8353378539       -0.0964914687        1.8313769208
  C         0.7097439979        1.5293608601        0.0030735206
  C         0.4608902265        1.0535989206       -1.2265730507
  C        -2.3063201643       -1.0559542950       -0.5895271143
  N         2.5816744798        0.2135784011       -0.6034194023
  C         1.6449233076        0.2920937433       -1.7274463638
  O         1.8391492260       -0.2055857015       -2.8133368124
  C         2.0835125135        1.1267535020        0.4302326342
  O         2.7063700221        1.4335403291        1.4222579464
  C         4.0154570107        0.1209994572       -0.8525422137
      24
 i =      15, E =     -144.1903833716
  O        -2.2942041247        2.0052437021       -0.3540157499
  O        -4.4409353279        0.4033333677        0.6865217283
  S        -2.8074811241        0.5548194045        0.3145706521
  H         0.0784468459        2.1366442965        0.6484331701
  H        -0.4260205361        1.1735432535       -1.8446185658
  H         4.5088268460       -0.0905661494        0.1019758299
  H         4.1826108704       -0.7080297147       -1.5476530990
  H         4.4511198345        1.0369624294       -1.2828526426
 Cl        -1.6597759761       -3.5714690042        0.0003445161
 Cl        -1.0888183097       -2.4232266933        2.8895608874
 Cl        -1.5802213902        0.8754401055        3.1290700427
 Cl        -2.6228439539       -1.2396537432       -2.1915162429
  C        -1.8602267290       -1.9371882963        0.3187753379
  C        -1.5988754111       -1.4055628089        1.6570988505
  C        -1.8376366999       -0.0973916732        1.8321474017
  C         0.7104116363        1.5318974438        0.0016413207
  C         0.4619258464        1.0562170499       -1.2274794530
  C        -2.3085347764       -1.0568360754       -0.5883992404
  N         2.5842533157        0.2146395618       -0.6038947200
  C         1.6476932657        0.2913234111       -1.7329678889
  O         1.8399114398       -0.2031525147       -2.8101578660
  C         2.0889794262        1.1293306113        0.4342722923
  O         2.7050237346        1.4329678586        1.4176498440
  C         4.0179745559        0.1218900095       -0.8534669149
      24
 i =      16, E =     -144.1905657923
  O        -2.2967275555        2.0031189213       -0.3525918757
  O        -4.4437741963        0.4121873232        0.6836965510
  S        -2.8133975820        0.5564831690        0.3150582588
  H         0.0789135843        2.1356901031        0.6460388654
  H        -0.4243600146        1.1744437836       -1.8426183648
  H         4.5180705384       -0.0874941444        0.0979634550
  H         4.1919561077       -0.7043660360       -1.5504899532
  H         4.4542790643        1.0408442869       -1.2851757189
 Cl        -1.6571195946       -3.5739221691        0.0032050033
 Cl        -1.0868900250       -2.4274811828        2.8886153340
 Cl        -1.5816719900        0.8730920769        3.1307236831
 Cl        -2.6243039381       -1.2424091307       -2.1908100875
  C        -1.8647138481       -1.9397200432        0.3203916499
  C        -1.6034946539       -1.4076277331        1.6587087454
  C        -1.8426440408       -0.0995498823        1.8338511321
  C         0.7144061612        1.5360639023       -0.0015062015
  C         0.4663394567        1.0608443468       -1.2292658586
  C        -2.3134222859       -1.0589011667       -0.5861452994
  N         2.5896100980        0.2168427610       -0.6051741872
  C         1.6503746619        0.2979021739       -1.7278726939
  O         1.8441146622       -0.2044252178       -2.8173326538
  C         2.0883672709        1.1300036480        0.4245936628
  O         2.7119700109        1.4364534330        1.4233205152
  C         4.0232699072        0.1243028922       -0.8556234236
      24
 i =      17, E =     -144.1909838569
  O        -2.2970235665        2.0033050130       -0.3525942600
  O        -4.4454098109        0.4138289246        0.6833850288
  S        -2.8135342871        0.5559694016        0.3153039444
  H         0.0790102539        2.1356976481        0.6457329478
  H        -0.4241100687        1.1746576958       -1.8424394658
  H         4.5198040661       -0.0869100744        0.0972614214
  H         4.1936596995       -0.7036994875       -1.5510557300
  H         4.4548607802        1.0414891716       -1.2855787473
 Cl        -1.6566064892       -3.5742838306        0.0037348748
 Cl        -1.0865722333       -2.4281156040        2.8882689472
 Cl        -1.5819930111        0.8725984499        3.1309912667
 Cl        -2.6245832935       -1.2429167175       -2.1905017263
  C        -1.8655961938       -1.9399857988        0.3207687722
  C        -1.6043602405       -1.4080293276        1.6590386693
  C        -1.8436670057       -0.1000590463        1.8342308092
  C         0.7153043319        1.5369688306       -0.0014141240
  C         0.4668885596        1.0614319108       -1.2302956770
  C        -2.3144627205       -1.0594066132       -0.5858568875
  N         2.5902288393        0.2172824027       -0.6056372704
  C         1.6521461799        0.2960384742       -1.7333847739
  O         1.8439126498       -0.2020095625       -2.8129950065
  C         2.0925078961        1.1323230650        0.4298143553
  O         2.7095096991        1.4352812053        1.4183263591
  C         4.0245514906        0.1250092208       -0.8561430901
      24
 i =      18, E =     -144.1909197941
  O        -2.2977227731        2.0034390766       -0.3524806553
  O        -4.4483046775        0.4172366977        0.6826430660
  S        -2.8142377953        0.5551487639        0.3157885553
  H         0.0790923475        2.1357787932        0.6451218416
  H        -0.4237775268        1.1751612815       -1.8421580743
  H         4.5233425867       -0.0857244777        0.0957992510
  H         4.1971580546       -0.7023099377       -1.5521734789
  H         4.4561442848        1.0428953839       -1.2864538544
 Cl        -1.6555473935       -3.5749619631        0.0048147389
 Cl        -1.0858998243       -2.4294061866        2.8875662662
 Cl        -1.5826598305        0.8715860561        3.1315379969
 Cl        -2.6251723079       -1.2439550462       -2.1899147423
  C        -1.8673622806       -1.9406576651        0.3215219453
  C        -1.6061142667       -1.4088919813        1.6597054029
  C        -1.8457553347       -0.1010219491        1.8350329502