      24
 i =       0, E =     -144.1398476114
  O        -2.7736947139        2.0930453801       -0.2934158172
  O        -4.3044686248        0.1180342975        0.7856243135
  S        -2.8437035205        0.6080122808        0.3061395205
  H        -0.2039873629        2.1515263237        0.6351186278
  H        -0.6851869115        1.1969413280       -1.7936485812
  H         3.7387681309       -0.8365191865        0.5564753406
  H         3.4177590512       -1.4740319592       -1.0735030173
  H         3.9480976025        0.2016099879       -0.8614669634
 Cl        -1.1263012569       -3.2404051423       -0.2388442185
 Cl        -0.5576338319       -2.0960945383        2.6561130057
 Cl        -1.3913493078        1.0637019989        3.0225554412
 Cl        -2.4367138319       -1.0414834170       -2.3030667492
  C        -1.4865743318       -1.6570157894        0.1563868857
  C        -1.2308387167       -1.1414408691        1.4602808659
  C        -1.5005073285        0.1896162496        1.6200990112
  C         0.1870804941        1.2461230595        0.2213396025
  C        -0.0639126162        0.7478075610       -1.0461924150
  C        -1.9637492061       -0.7450525556       -0.7435282680
  N         1.9382514933       -0.2261660559       -0.3014258701
  C         1.0788198671       -0.1089850369       -1.4623611880
  O         1.2892088189       -0.6405344910       -2.5260615282
  C         1.5049126463        0.7371700602        0.6893511065
  O         2.1245951906        1.0169493447        1.6879894068
  C         3.3368149822       -0.5916010123       -0.4319437621
      24
 i =       1, E =     -144.1488670573
  O        -2.7726419192        2.1238465241       -0.3057936885
  O        -4.3337085295        0.1083370936        0.7950939352
  S        -2.8206959941        0.5991667470        0.3051808848
  H        -0.2119349498        2.1572875967        0.6411193006
  H        -0.6949305849        1.1980519692       -1.7984481986
  H         3.7406358533       -0.8363968087        0.5568088727
  H         3.4195124406       -1.4745494333       -1.0746670823
  H         3.9515825905        0.2060305512       -0.8639597191
 Cl        -1.1257378000       -3.2427031760       -0.2385913271
 Cl        -0.5570815987       -2.0977089671        2.6569714450
 Cl        -1.3905166691        1.0638152318        3.0204271072
 Cl        -2.4352157372       -1.0401383935       -2.3021075168
  C        -1.4881297589       -1.6542111524        0.1392249663
  C        -1.2267764954       -1.1282675287        1.4709529238
  C        -1.5060250454        0.1758931106        1.6329554208
  C         0.1898923436        1.2414135484        0.1904682816
  C        -0.0508567453        0.7646158923       -1.0232885141
  C        -1.9714308702       -0.7628287661       -0.7412366760
  N         1.9442473513       -0.2317947628       -0.3009574534
  C         1.0777340722       -0.1134453113       -1.4658255411
  O         1.2911537832       -0.6411026268       -2.5284458823
  C         1.5058769491        0.7371448701        0.6967586001
  O         2.1263425221        1.0175590018        1.6880272043
  C         3.3405043413       -0.5941031933       -0.4316434812
      24
 i =       2, E =     -144.1524617499
  O        -2.7726754828        2.1328489155       -0.3093515657
  O        -4.3391794243        0.1062118635        0.7969868163
  S        -2.8197288230        0.6007337588        0.3044112598
  H        -0.2151997898        2.1541254121        0.6417513616
  H        -0.6976946698        1.1956578238       -1.7957501017
  H         3.7412117459       -0.8375582381        0.5577914388
  H         3.4199912325       -1.4761619814       -1.0748181258
  H         3.9524147706        0.2062894675       -0.8643000777
 Cl        -1.1242884242       -3.2434433200       -0.2383984160
 Cl        -0.5557341542       -2.0985117695        2.6568011093
 Cl        -1.3895982995        1.0650668926        3.0198103864
 Cl        -2.4342684679       -1.0389206648       -2.3028076757
  C        -1.4829780464       -1.6571622300        0.1427415388
  C        -1.2227413450       -1.1333152125        1.4689418636
  C        -1.5138288995        0.1760701212        1.6421549807
  C         0.1970979428        1.2579434726        0.2038663169
  C        -0.0505539898        0.7670643575       -1.0453596233
  C        -1.9819078465       -0.7675539380       -0.7451511984
  N         1.9446840879       -0.2351426863       -0.2997625913
  C         1.0782267303       -0.1152471013       -1.4632363623
  O         1.2907379860       -0.6422473084       -2.5302952357
  C         1.5044678029        0.7337355059        0.6945508864
  O         2.1275035268        1.0184678531        1.6916222356
  C         3.3430890505       -0.5951570674       -0.4318286956
      24
 i =       3, E =     -144.1543948067
  O        -2.7730643266        2.1386044448       -0.3115598527
  O        -4.3419834580        0.1049864073        0.7980158591
  S        -2.8206435806        0.6025440056        0.3039021790
  H        -0.2192178927        2.1550304738        0.6440037704
  H        -0.7022054751        1.1952696455       -1.7965655836
  H         3.7411962264       -0.8390857373        0.5587974085
  H         3.4199364977       -1.4780057612       -1.0745165683
  H         3.9527092352        0.2057577953       -0.8642239886
 Cl        -1.1224489626       -3.2441125452       -0.2384951303
 Cl        -0.5539109032       -2.0991677125        2.6566909332
 Cl        -1.3888068541        1.0664367362        3.0199947517
 Cl        -2.4337230439       -1.0381329615       -2.3040906462
  C        -1.4809044995       -1.6567976472        0.1414347646
  C        -1.2204035926       -1.1325311043        1.4688977850
  C        -1.5186421888        0.1722115632        1.6466922488
  C         0.1996574312        1.2594422605        0.1940720761
  C        -0.0449985274        0.7742003774       -1.0406234269
  C        -1.9874317388       -0.7727066542       -0.7440180567
  N         1.9439288339       -0.2381893168       -0.2984860598
  C         1.0781505754       -0.1174070372       -1.4641687729
  O         1.2900141576       -0.6430182528       -2.5295963863
  C         1.5056665758        0.7330935214        0.6978253795
  O         2.1258988348        1.0173180941        1.6908509988
  C         3.3442292444       -0.5965981754       -0.4315056580
      24
 i =       4, E =     -144.1566670895
  O        -2.7738113845        2.1460647483       -0.3143750430
  O        -4.3452086617        0.1035015312        0.7992332129
  S        -2.8228597877        0.6056894291        0.3031409962
  H        -0.2245871819        2.1542167635        0.6463021505
  H        -0.7077028697        1.1936775707       -1.7958797225
  H         3.7409945844       -0.8417178980        0.5603664168
  H         3.4197177707       -1.4810467806       -1.0737936407
  H         3.9529231180        0.2044568175       -0.8638850461
 Cl        -1.1192154456       -3.2449817580       -0.2386777496
 Cl        -0.5507305695       -2.1001106662        2.6563175944
 Cl        -1.3875834642        1.0685404680        3.0202480615
 Cl        -2.4328587484       -1.0368827523       -2.3060088968
  C        -1.4775426523       -1.6569556233        0.1399658466
  C        -1.2167528945       -1.1321624468        1.4688926184
  C        -1.5267020013        0.1673506453        1.6533942040
  C         0.2053328879        1.2680901184        0.1907862759
  C        -0.0396115366        0.7819939991       -1.0458750486
  C        -1.9966234237       -0.7795800625       -0.7426682412
  N         1.9432181812       -0.2433789205       -0.2962846378
  C         1.0778406391       -0.1190707069       -1.4624688614
  O         1.2887777497       -0.6453355804       -2.5302649239
  C         1.5041878954        0.7306097927        0.6969363887
  O         2.1256419895        1.0165905918        1.6941688906
  C         3.3449556705       -0.5990372403       -0.4307616512
      24
 i =       5, E =     -144.1578894751
  O        -2.7742964832        2.1495127808       -0.3156475131
  O        -4.3464904689        0.1029577146        0.7997036605
  S        -2.8246085497        0.6075030109        0.3027930080
  H        -0.2277416487        2.1539412735        0.6477607941
  H        -0.7109803792        1.1928123931       -1.7956825415
  H         3.7407770263       -0.8433938957        0.5612435246
  H         3.4195250072       -1.4828953918       -1.0732182086
  H         3.9528511985        0.2033760425       -0.8635268827
 Cl        -1.1170361965       -3.2454327012       -0.2388141424
 Cl        -0.5485952882       -2.1006476797        2.6559924274
 Cl        -1.3869389364        1.0697440970        3.0204402060
 Cl        -2.4324345065       -1.0361874224       -2.3071303512
  C        -1.4757996092       -1.6571192512        0.1393102183
  C        -1.2148829512       -1.1321116299        1.4688644272
  C        -1.5315589270        0.1648721069        1.6568010730
  C         0.2083255590        1.2722152211        0.1871288496
  C        -0.0360723479        0.7869840630       -1.0471663166
  C        -2.0019932066       -0.7829940362       -0.7417059073
  N         1.9423889372       -0.2465317134       -0.2949056770
  C         1.0779786838       -0.1204762216       -1.4631967097
  O         1.2876842584       -0.6462427145       -2.5291369014
  C         1.5052578236        0.7302761015        0.6992031697
  O         2.1237375123        1.0151733036        1.6935811304
  C         3.3451310104       -0.6006403225       -0.4301771995
      24
 i =       6, E =     -144.1595649804
  O        -2.7751061166        2.1543718113       -0.3174173552
  O        -4.3483262801        0.1022466707        0.8003514018
  S        -2.8274017059        0.6102370166        0.3023051449
  H        -0.2324951645        2.1532030054        0.6498456581
  H        -0.7158372228        1.1913316712       -1.7951241156
  H         3.7404033959       -0.8461239217        0.5625945935
  H         3.4192154722       -1.4858418548       -1.0722140045
  H         3.9526052307        0.2014536154       -0.8628507068
 Cl        -1.1133967826       -3.2460742671       -0.2390539372
 Cl        -0.5450377146       -2.1014597114        2.6553860823
 Cl        -1.3860138228        1.0715700629        3.0207261705
 Cl        -2.4318386825       -1.0351170232       -2.3088116387
  C        -1.4734047074       -1.6572865143        0.1382665455
  C        -1.2122768535       -1.1318892385        1.4688855579
  C        -1.5392088680        0.1609996200        1.6618001414
  C         0.2134785240        1.2793482318        0.1829967194
  C        -0.0307424721        0.7942641791       -1.0507290254
  C        -2.0103355520       -0.7881065299       -0.7399777620
  N         1.9410494666       -0.2515760191       -0.2926174592
  C         1.0778651659       -0.1210878758       -1.4617569550
  O         1.2862682424       -0.6488334123       -2.5293307667
  C         1.5041492667        0.7287683217        0.6979916705
  O         2.1230386349        1.0138784173        1.6965742339
  C         3.3450275741       -0.6032372847       -0.4291864069
      24
 i =       7, E =     -144.1602715049
  O        -2.7754639099        2.1561048773       -0.3180339617
  O        -4.3490444768        0.1020692785        0.8005678623
  S        -2.8285930182        0.6112260990        0.3021580251
  H        -0.2344041463        2.1528568469        0.6506935343
  H        -0.7177812704        1.1906890065       -1.7948782129
  H         3.7402122175       -0.8473307144        0.5631468189
  H         3.4190644746       -1.4871115032       -1.0717316849
  H         3.9523989389        0.2005047097       -0.8624899552
 Cl        -1.1117285597       -3.2462829539       -0.2391687080
 Cl        -0.5434145292       -2.1017672376        2.6550583375
 Cl        -1.3856916015        1.0722830942        3.0208185359
 Cl        -2.4316464933       -1.0346842798       -2.3094770277
  C        -1.4725899718       -1.6573530227        0.1378899591
  C        -1.2113885475       -1.1318034873        1.4688983835
  C        -1.5424148403        0.1594867806        1.6637171515
  C         0.2154900962        1.2823296135        0.1811403606
  C        -0.0286022855        0.7973855354       -1.0521421671
  C        -2.0137696964       -0.7900403471       -0.7391565496
  N         1.9403388219       -0.2537318576       -0.2916336264
  C         1.0780870263       -0.1217554454       -1.4623134541
  O         1.2854449633       -0.6495508333       -2.5284108003
  C         1.5048863370        0.7287426712        0.6991873555
  O         2.1217190103        1.0127897492        1.6963066211
  C         3.3448672568       -0.6044064011       -0.4287025554
      24
 i =       8, E =     -144.1678648468
  O        -2.7806168586        2.1790281172       -0.3261127917
  O        -4.3592914545        0.1000961660        0.8034367835
  S        -2.8453128085        0.6243899229        0.3004042063
  H        -0.2609028490        2.1478449162        0.6623741307
  H        -0.7447217275        1.1816469225       -1.7913740110
  H         3.7374429306       -0.8647061654        0.5709007328
  H         3.4169316648       -1.5052067102       -1.0646420675
  H         3.9490055889        0.1864265029       -0.8570226481
 Cl        -1.0874526308       -3.2488050416       -0.2408569908
 Cl        -0.5198631491       -2.1058453415        2.6499413801
 Cl        -1.3815861614        1.0819953883        3.0219364337
 Cl        -2.4292162666       -1.0286217938       -2.3182566044
  C        -1.4622072698       -1.6582861251        0.1330989857
  C        -1.2000638935       -1.1306877563        1.4691842460
  C        -1.5874061962        0.1386412964        1.6898682501
  C         0.2450239499        1.3238828367        0.1557718028
  C         0.0023882955        0.8405882303       -1.0722275180
  C        -2.0618383856       -0.8163828834       -0.7276350804
  N         1.9300952398       -0.2841254651       -0.2774803831
  C         1.0793643127       -0.1244011774       -1.4589588233
  O         1.2754877566       -0.6648599764       -2.5245053054
  C         1.5043750736        0.7246272047        0.6978766484
  O         2.1122424824        1.0010929470        1.7077684153
  C         3.3415331762       -0.6212188806       -0.4216483516
      24
 i =       9, E =     -144.1683061668
  O        -2.7808080941        2.1786798630       -0.3259375953
  O        -4.3599518866        0.1005519905        0.8033915156
  S        -2.8461569045        0.6241710733        0.3006867851
  H        -0.2612746918        2.1471584566        0.6624415320
  H        -0.7449702611        1.1810999986       -1.7909002310
  H         3.7373950112       -0.8656164092        0.5711219028
  H         3.4169625111       -1.5060225355       -1.0641987373
  H         3.9484609086        0.1853654644       -0.8565115073
 Cl        -1.0857874123       -3.2485481868       -0.2409466548
 Cl        -0.5183195625       -2.1058138407        2.6492727033
 Cl        -1.3819212852        1.0820058400        3.0217765906
 Cl        -2.4294581399       -1.0284371246       -2.3179945150
  C        -1.4630470543       -1.6581452749        0.1333334577
  C        -1.2009190393       -1.1306426830        1.4692656640
  C        -1.5890137241        0.1379356469        1.6903047786
  C         0.2462059002        1.3263066035        0.1556065284
  C         0.0032361122        0.8423028765       -1.0741649537
  C        -2.0633938343       -0.8170115748       -0.7270379121
  N         1.9292357204       -0.2853252268       -0.2768415546
  C         1.0801629591       -0.1245314131       -1.4608108449
  O         1.2746971605       -0.6651058243       -2.5225640321
  C         1.5060715759        0.7257866202        0.6994443316
  O         2.1105665392        0.9996531270        1.7064643294
  C         3.3408804652       -0.6222128967       -0.4211299600
      24
 i =      10, E =     -144.1698133563
  O        -2.7820480824        2.1764546139       -0.3248052986
  O        -4.3652448253        0.1036813406        0.8032336243
  S        -2.8516409415        0.6225272937        0.3025844719
  H        -0.2645015951        2.1438264501        0.6636398136
  H        -0.7477364110        1.1779698191       -1.7888671038
  H         3.7370954232       -0.8719748423        0.5727419002
  H         3.4171992716       -1.5117108916       -1.0612184511
  H         3.9447010059        0.1781281870       -0.8529805612
 Cl        -1.0743755482       -3.2463099049       -0.2414562610
 Cl        -0.5077441260       -2.1054504497        2.6444642136
 Cl        -1.3843524015        1.0820194241        3.0206938293
 Cl        -2.4312295025       -1.0271337131       -2.3160088084
  C        -1.4684315314       -1.6584131714        0.1351138341
  C        -1.2064897674       -1.1311826771        1.4701820483
  C        -1.6003007430        0.1339564105        1.6936657235
  C         0.2552384741        1.3390487871        0.1486555228
  C         0.0123263051        0.8550116899       -1.0810004853
  C        -2.0745339392       -0.8209929863       -0.7237295122
  N         1.9236351556       -0.2933188516       -0.2725236190
  C         1.0828823797       -0.1183952903       -1.4603165124
  O         1.2715914672       -0.6726497319       -2.5206684469
  C         1.5074080135        0.7297836292        0.6939457287
  O         2.1078483871        0.9935589420        1.7116760625
  C         3.3362673751       -0.6289176587       -0.4176398750
      24
 i =      11, E =     -144.1701572881
  O        -2.7820927210        2.1761966627       -0.3246916491
  O        -4.3665298841        0.1040988959        0.8033216876
  S        -2.8522634268        0.6223584481        0.3027861071
  H        -0.2649589378        2.1437915226        0.6639865087
  H        -0.7482449304        1.1777422462       -1.7889723776
  H         3.7371423403       -0.8727762778        0.5729827389
  H         3.4173044519       -1.5124236374       -1.0609529433
  H         3.9442100415        0.1773771263       -0.8525575907
 Cl        -1.0728743006       -3.2459375940       -0.2414659597
 Cl        -0.5064269945       -2.1053052673        2.6436724945
 Cl        -1.3848420968        1.0819911792        3.0206048124
 Cl        -2.4316597037       -1.0270224427       -2.3158371936
  C        -1.4692713237       -1.6587855401        0.1351960505
  C        -1.2071275789       -1.1316945657        1.4707222627
  C        -1.6020214333        0.1335312305        1.6944036539
  C         0.2566081346        1.3406947574        0.1471850736
  C         0.0138921001        0.8569849001       -1.0815724925
  C        -2.0762185830       -0.8217059538       -0.7232206431
  N         1.9231669979       -0.2940126213       -0.2721438598
  C         1.0837514384       -0.1191827466       -1.4628191171
  O         1.2709801497       -0.6724184190       -2.5184615029
  C         1.5093435488        0.7308110450        0.6961658001
  O         2.1063056197        0.9923139778        1.7099803275
  C         3.3359728755       -0.6297439828       -0.4172576078
      24
 i =      12, E =     -144.1705218902
  O        -2.7821114654        2.1758675242       -0.3245546306
  O        -4.3681118004        0.1046796218        0.8034035503
  S        -2.8531490120        0.6220750980        0.3030903505
  H        -0.2654608598        2.1436851408        0.6643471608
  H        -0.7487833239        1.1774497390       -1.7890336326
  H         3.7372377459       -0.8737654910        0.5732693821
  H         3.4174746965       -1.5132918086       -1.0606408712
  H         3.9436295373        0.1764824318       -0.8520454292
 Cl        -1.0709943410       -3.2454965723       -0.2414786717
 Cl        -0.5047630880       -2.1051599907        2.6427141732
 Cl        -1.3854866103        1.0819646120        3.0205272031
 Cl        -2.4322360854       -1.0268922325       -2.3156225714
  C        -1.4703326204       -1.6592345149        0.1354186347
  C        -1.2080764022       -1.1321302808        1.4713202058
  C        -1.6041605015        0.1327247359        1.6952876600
  C         0.2586161365        1.3428767443        0.1457735172
  C         0.0159568959        0.8592522627       -1.0827328381
  C        -2.0783795501       -0.8226272264       -0.7225490556
  N         1.9227264381       -0.2948996035       -0.2716887078
  C         1.0842542039       -0.1182801872       -1.4625717802
  O         1.2707685916       -0.6736440565       -2.5186018594
  C         1.5095632655        0.7312650451        0.6951851944
  O         2.1062931481        0.9915750238        1.7110342010
  C         3.3355862097       -0.6307405746       -0.4167976220
      24
 i =      13, E =     -144.1737837177
  O        -2.7818541041        2.1717461576       -0.3229078938
  O        -4.3865142328        0.1121094655        0.8041016283
  S        -2.8647779534        0.6181786485        0.3070353051
  H        -0.2702814402        2.1418963955        0.6679594009
  H        -0.7538061724        1.1739148919       -1.7893308319
  H         3.7387949805       -0.8850627807        0.5764022193
  H         3.4199238135       -1.5230326493       -1.0573105342
  H         3.9372269353        0.1666862694       -0.8463030458
 Cl        -1.0489652101       -3.2405439745       -0.2415348169
 Cl        -0.4851238887       -2.1038894233        2.6318186762
 Cl        -1.3935457269        1.0815996513        3.0199062588
 Cl        -2.4395054044       -1.0254783312       -2.3129126929
  C        -1.4831278613       -1.6643562724        0.1391283952
  C        -1.2204187075       -1.1366259367        1.4773306213
  C        -1.6297875365        0.1217592057        1.7059216947
  C         0.2816689669        1.3709035751        0.1304815440
  C         0.0390251922        0.8866751911       -1.0985708525
  C        -2.1045362489       -0.8341386428       -0.7142826264
  N         1.9180170752       -0.3046112313       -0.2667321839
  C         1.0929018399       -0.1127320261       -1.4689735305
  O         1.2672877496       -0.6835887448       -2.5127840001
  C         1.5190108017        0.7387491027        0.6932372498
  O         2.1017450923        0.9811719091        1.7149850004
  C         3.3318475049       -0.6421678427       -0.4116582152
      24
 i =      14, E =     -144.1740176312
  O        -2.7815967861        2.1713875513       -0.3228163948
  O        -4.3874874294        0.1127563833        0.8040296740
  S        -2.8658612807        0.6177131021        0.3074187692
  H        -0.2699948508        2.1418325382        0.6678861100
  H        -0.7534766812        1.1738550128       -1.7893454455
  H         3.7390736893       -0.8854147346        0.5764423070
  H         3.4202223382       -1.5233039106       -1.0572680966
  H         3.9371675777        0.1665448715       -0.8462076911
 Cl        -1.0480110448       -3.2403662016       -0.2414913076
 Cl        -0.4842214337       -2.1039715266        2.6314365468
 Cl        -1.3942088958        1.0815309711        3.0200167703
 Cl        -2.4401143917       -1.0255035889       -2.3126378495
  C        -1.4839420555       -1.6646013959        0.1396127445
  C        -1.2213051177       -1.1371543907        1.4773031513
  C        -1.6312625463        0.1211448239        1.7066580584
  C         0.2829397813        1.3720519593        0.1291044976
  C         0.0405042579        0.8882725201       -1.0988082751
  C        -2.1060197756       -0.8349998659       -0.7138160347
  N         1.9182364059       -0.3047320967       -0.2667248462
  C         1.0929913155       -0.1107059754       -1.4666260460
  O         1.2678212597       -0.6852264315       -2.5150152841
  C         1.5179310622        0.7386751085        0.6901145691
  O         2.1032883349        0.9814035975        1.7175825726
  C         3.3319352328       -0.6424871403       -0.4115495994
      24
 i =      15, E =     -144.1746030704
  O        -2.7809363477        2.1703768901       -0.3225453120
  O        -4.3903003488        0.1143781894        0.8039209112
  S        -2.8684732045        0.6166596476        0.3083343153
  H        -0.2691424838        2.1416213297        0.6676296793
  H        -0.7524968213        1.1736997347       -1.7893510427
  H         3.7397771397       -0.8863406284        0.5765570045
  H         3.4209770866       -1.5240143836       -1.0571565181
  H         3.9369972299        0.1661493975       -0.8459417124
 Cl        -1.0454949319       -3.2399021283       -0.2413786912
 Cl        -0.4818742300       -2.1041499206        2.6303836927
 Cl        -1.3959654007        1.0813166039        3.0203041111
 Cl        -2.4417387547       -1.0255812071       -2.3119189641
  C        -1.4861242256       -1.6653914552        0.1406185947
  C        -1.2236033409       -1.1382375599        1.4776494365
  C        -1.6350748636        0.1193297026        1.7085031286
  C         0.2859573859        1.3759054586        0.1267661389
  C         0.0435689480        0.8922519892       -1.1007689887
  C        -2.1099058683       -0.8372283224       -0.7126132099
  N         1.9185963593       -0.3049315282       -0.2667450442
  C         1.0947581134       -0.1101562293       -1.4686844193
  O         1.2679663746       -0.6855369131       -2.5137401778
  C         1.5202679001        0.7403096414        0.6907628911
  O         2.1029379209        0.9802883692        1.7167804673
  C         3.3323399114       -0.6433497317       -0.4112860389
      24
 i =      16, E =     -144.1755079801
  O        -2.7796064555        2.1679824485       -0.3218746920
  O        -4.3967381005        0.1177603244        0.8037938173
  S        -2.8737095675        0.6146570991        0.3101095968
  H        -0.2674291408        2.1415481248        0.6671461037
  H        -0.7506033256        1.1736151241       -1.7896448261
  H         3.7412204149       -0.8884238513        0.5768355609
  H         3.4225501425       -1.5255917076       -1.0568963593
  H         3.9366535057        0.1651945773       -0.8452965457
 Cl        -1.0400728346       -3.2388074783       -0.2411505592
 Cl        -0.4768617238       -2.1044245985        2.6279934245
 Cl        -1.3998000876        1.0807892829        3.0208920582
 Cl        -2.4452785311       -1.0258078482       -2.3103496397
  C        -1.4907709743       -1.6675179722        0.1423942273
  C        -1.2283742355       -1.1403243840        1.4790108977
  C        -1.6431158369        0.1154085996        1.7122599626
  C         0.2928900785        1.3834726870        0.1220573613
  C         0.0506082513        0.9000350207       -1.1048357843
  C        -2.1181907908       -0.8415870744       -0.7100357251
  N         1.9193850218       -0.3052819531       -0.2667671529
  C         1.0976474587       -0.1062800941       -1.4684081848
  O         1.2689055527       -0.6883544680       -2.5148985804
  C         1.5222109902        0.7426997569        0.6869223644
  O         2.1046360673        0.9789071790        1.7194132277
  C         3.3330648450       -0.6451362802       -0.4107327451
      24
 i =      17, E =     -144.1756766548
  O        -2.7793994857        2.1674221903       -0.3217004395
  O        -4.3982835415        0.1183563799        0.8038500261
  S        -2.8744759658        0.6143794446        0.3103611139
  H        -0.2671013002        2.1417839055        0.6670608905
  H        -0.7502956508        1.1737839321       -1.7898780632
  H         3.7414140601       -0.8889053287        0.5769100992
  H         3.4227832646       -1.5259191394       -1.0568227906
  H         3.9366083723        0.1649221011       -0.8451166128
 Cl        -1.0390113586       -3.2385744626       -0.2411319297
 Cl        -0.4759256718       -2.1043870729        2.6274484100
 Cl        -1.4005974339        1.0806175577        3.0209761167
 Cl        -2.4460180428       -1.0258927034       -2.3100510549
  C        -1.4916571122       -1.6680335471        0.1425293285
  C        -1.2291458993       -1.1406904588        1.4795888399
  C        -1.6445300025        0.1147737672        1.7128273252
  C         0.2940950586        1.3847013805        0.1215395669
  C         0.0517517883        0.9011346029       -1.1057105935
  C        -2.1196253568       -0.8421964340       -0.7095156726
  N         1.9194425903       -0.3052322941       -0.2667891109
  C         1.0985123216       -0.1066782795       -1.4701604205
  O         1.2687798919       -0.6879529529       -2.5135049574
  C         1.5237510113        0.7434809291        0.6882313529
  O         2.1039078677        0.9782776595        1.7181244125
  C         3.3331805791       -0.6454596298       -0.4106084916
      24
 i =      18, E =     -144.1759855510
  O        -2.7789755097        2.1663420416       -0.3213698900
  O        -4.4013187557        0.1196301437        0.8039190590
  S        -2.8762028347        0.6136726222        0.3109691846
  H        -0.2664231263        2.1422954407        0.6668573198
  H        -0.7496541032        1.1741739574       -1.7903533866
  H         3.7417666605       -0.8899367296        0.5770724147
  H         3.4232253906       -1.5265997635       -1.0566517850
  H         3.9365353818        0.1643398567       -0.8447225037
 Cl        -1.0368309967       -3.2381035379       -0.2411188394
 Cl        -0.4739829235       -2.1043119280        2.6263655902
 Cl        -1.4022331981        1.0802738640        3.0211548854
 Cl        -2.4475386643       -1.0260606085       -2.3094433802
  C        -1.4934000039       -1.6689370945        0.1430248807
  C        -1.2307628726       -1.1414802352        1.4804845019
  C        -1.6473228314        0.1135278372        1.7139340863