      24
 i =       0, E =     -143.9855792355
  O        -2.2650136398        1.5898562380       -0.1976153888
  O        -4.1123051474        0.4030112023        0.6194307531
  S        -2.7489634236        0.4442592805        0.3455797121
  H         0.3058046211        2.1001886143        0.5940880887
  H        -0.2041295509        1.1597594333       -1.8588950746
  H         4.5017651052        0.0716301380        0.0421597714
  H         4.1695166613       -0.5433550986       -1.6080304564
  H         4.4560529150        1.1493471227       -1.3215305153
 Cl        -1.8308092530       -3.5197064949       -0.0014728191
 Cl        -1.2540040090       -2.3605531576        2.9136497762
 Cl        -1.6330665650        0.8603256295        3.1439284949
 Cl        -2.6776900307       -1.2533901988       -2.1740021065
  C        -1.9674821226       -1.9161651239        0.3431461809
  C        -1.7098865892       -1.3912297293        1.6616510844
  C        -1.8179415357       -0.0577190024        1.7767632442
  C         0.7942721423        1.4369899395        0.0394590340
  C         0.5331266086        0.9539582495       -1.2182228898
  C        -2.2762380253       -0.9981070941       -0.5853163059
  N         2.6293471792        0.4294336391       -0.6965566890
  C         1.7194954489        0.3653711106       -1.7563613486
  O         1.9135418720       -0.1013558485       -2.8542148049
  C         2.1628433678        1.1865600801        0.3777906486
  O         2.7935121531        1.5211313737        1.3557266094
  C         4.0156579973        0.2748763905       -0.9110220269
      24
 i =       1, E =     -144.1117737809
  O        -2.1918851120        1.7479695151       -0.2740525563
  O        -4.2755907414        0.4055584111        0.6491013312
  S        -2.6894300352        0.3640953534        0.3656554531
  H         0.2781753711        2.1313353664        0.6246293124
  H        -0.2418137137        1.1672656834       -1.8868562577
  H         4.5200661523        0.0847326017        0.0355285365
  H         4.1873506838       -0.5320630801       -1.6200416459
  H         4.4746926294        1.1834970750       -1.3383011155
 Cl        -1.8414786917       -3.5366783656        0.0032140878
 Cl        -1.2633019983       -2.3743112257        2.9250269850
 Cl        -1.6357290313        0.8564643392        3.1423618635
 Cl        -2.6791309116       -1.2553931474       -2.1699286133
  C        -1.9702448174       -1.9280997330        0.3350395322
  C        -1.7085279385       -1.3932170788        1.6757617350
  C        -1.8113659455       -0.0828624718        1.8246957635
  C         0.7897727785        1.4213198948       -0.0201587169
  C         0.5503268570        0.9826126919       -1.1654209029
  C        -2.2825368282       -1.0476196322       -0.6031235687
  N         2.6781905634        0.4178515131       -0.7019382579
  C         1.7298167632        0.3562947506       -1.7949542249
  O         1.9307644490       -0.0953219408       -2.8666571084
  C         2.1853485117        1.2030968537        0.4055008104
  O         2.8125939853        1.5310258263        1.3542046750
  C         4.0539191924        0.2765019791       -0.9193425359
      24
 i =       2, E =     -144.1344992691
  O        -2.1791105705        1.7701028407       -0.2852490939
  O        -4.3050822104        0.4089436424        0.6533128420
  S        -2.6932043978        0.3916910090        0.3554067951
  H         0.2750222052        2.1289571254        0.6246037053
  H        -0.2443485882        1.1663576633       -1.8836525505
  H         4.5316382079        0.0893333370        0.0345814308
  H         4.1979755883       -0.5294228462       -1.6270832401
  H         4.4832665185        1.1955180515       -1.3447354748
 Cl        -1.8454936956       -3.5472300015        0.0064397660
 Cl        -1.2667221331       -2.3834721079        2.9311163435
 Cl        -1.6358894983        0.8574401568        3.1457576260
 Cl        -2.6805142585       -1.2571892978       -2.1730548440
  C        -1.9655985167       -1.9449806337        0.3437250582
  C        -1.7047704290       -1.4129175889        1.6793499417
  C        -1.8120358057       -0.0855069438        1.8422709911
  C         0.7981645843        1.4618106900        0.0465677721
  C         0.5312081888        0.9686077163       -1.2388612510
  C        -2.2881407774       -1.0613767383       -0.6121337141
  N         2.6829618373        0.4158037676       -0.7024241357
  C         1.7357935313        0.3664194882       -1.7733280756
  O         1.9403776723       -0.1013399836       -2.8940479899
  C         2.1831697407        1.1963616064        0.3841709253
  O         2.8303894046        1.5421969581        1.3715036944
  C         4.0778540538        0.2840615973       -0.9272531111
      24
 i =       3, E =     -144.1519687657
  O        -2.1695708095        1.7867429798       -0.2936293760
  O        -4.3216879502        0.4115671161        0.6553970036
  S        -2.6988906311        0.4073481727        0.3502482231
  H         0.2647284940        2.1378951691        0.6344686483
  H        -0.2579430044        1.1682543112       -1.8918635729
  H         4.5406864699        0.0927978912        0.0334481830
  H         4.2064358653       -0.5271952198       -1.6322038979
  H         4.4901817519        1.2048891317       -1.3497974319
 Cl        -1.8481806220       -3.5566793452        0.0087733314
 Cl        -1.2687330200       -2.3915141887        2.9366901290
 Cl        -1.6358057791        0.8585304636        3.1495374706
 Cl        -2.6817705774       -1.2590904768       -2.1763907072
  C        -1.9648396443       -1.9506083124        0.3437516936
  C        -1.7034495827       -1.4168302937        1.6826723887
  C        -1.8137557277       -0.0960808608        1.8490692066
  C         0.7952716142        1.4518081899        0.0094500783
  C         0.5434749658        0.9854635780       -1.2054511326
  C        -2.2905794493       -1.0730394218       -0.6092739776
  N         2.6901465350        0.4135952550       -0.7029990980
  C         1.7445952967        0.3583733752       -1.7965033209
  O         1.9434255212       -0.0931689861       -2.8830428337
  C         2.1991605995        1.2033921432        0.4001721039
  O         2.8289649861        1.5412516731        1.3593092065
  C         4.0898811099        0.2892754067       -0.9318933507
      24
 i =       4, E =     -144.1605261979
  O        -2.1564406193        1.8095238786       -0.3051028267
  O        -4.3420031991        0.4156567887        0.6576049670
  S        -2.7086764872        0.4281287044        0.3438482476
  H         0.2579238757        2.1392193295        0.6383257245
  H        -0.2649988474        1.1679631220       -1.8919566594
  H         4.5543005771        0.0977955068        0.0309014895
  H         4.2194806181       -0.5235040825       -1.6391920766
  H         4.5004737726        1.2178235365       -1.3569625242
 Cl        -1.8517258511       -3.5707251249        0.0125164737
 Cl        -1.2714074809       -2.4036809224        2.9446092709
 Cl        -1.6356285541        0.8593090985        3.1544251513
 Cl        -2.6832327665       -1.2620461115       -2.1803221934
  C        -1.9628343994       -1.9605121185        0.3471136567
  C        -1.7014403642       -1.4267384247        1.6861665103
  C        -1.8182089421       -0.1055474104        1.8573652513
  C         0.7988707885        1.4672480839        0.0171374567
  C         0.5430568400        0.9915632715       -1.2212949276
  C        -2.2960708719       -1.0847555426       -0.6070259050
  N         2.7027889609        0.4098700056       -0.7043872374
  C         1.7485492210        0.3675591863       -1.7822170001
  O         1.9530956106       -0.0960678098       -2.9025268589
  C         2.1974403993        1.2010159881        0.3849709758
  O         2.8436882837        1.5497006061        1.3694764497
  C         4.1048161296        0.2967103298       -0.9380328402
      24
 i =       5, E =     -144.1662079538
  O        -2.1499315012        1.8204698154       -0.3106358308
  O        -4.3506736894        0.4182551727        0.6582093905
  S        -2.7145635912        0.4381043517        0.3410468289
  H         0.2532570606        2.1410273195        0.6416149849
  H        -0.2701886430        1.1679531624       -1.8931998913
  H         4.5619886263        0.1006943174        0.0288082796
  H         4.2270698814       -0.5209490596       -1.6427292767
  H         4.5061119119        1.2243412487       -1.3606823327
 Cl        -1.8534707457       -3.5785191664        0.0147994678
 Cl        -1.2727516101       -2.4106182329        2.9487843870
 Cl        -1.6355170420        0.8592373438        3.1569803142
 Cl        -2.6838380976       -1.2638916612       -2.1818148607
  C        -1.9621970946       -1.9651942746        0.3483816337
  C        -1.7006566645       -1.4311283284        1.6882909815
  C        -1.8217350809       -0.1105157187        1.8597480995
  C         0.7989707266        1.4703328515        0.0086837276
  C         0.5459920394        0.9994250778       -1.2170603375
  C        -2.2995432447       -1.0895493671       -0.6045799576
  N         2.7079394621        0.4080919840       -0.7047208242
  C         1.7553571394        0.3621457265       -1.7997151283
  O         1.9544756865       -0.0885498253       -2.8910781705
  C         2.2093168028        1.2068144299        0.3964467967
  O         2.8405876264        1.5481669749        1.3578264032
  C         4.1134235928        0.3006109084       -0.9414715951
      24
 i =       6, E =     -144.1718412173
  O        -2.1409151558        1.8360702991       -0.3184554477
  O        -4.3628259365        0.4223664538        0.6588838871
  S        -2.7232081425        0.4524982316        0.3370086797
  H         0.2472869226        2.1418612691        0.6446636937
  H        -0.2761568238        1.1676304122       -1.8929847167
  H         4.5740076788        0.1049876658        0.0251827981
  H         4.2390739336       -0.5169290555       -1.6478611194
  H         4.5148092450        1.2337023201       -1.3661758011
 Cl        -1.8558410922       -3.5901254025        0.0184322294
 Cl        -1.2746043922       -2.4211617506        2.9548125258
 Cl        -1.6353748996        0.8584859813        3.1602601872
 Cl        -2.6845366043       -1.2667818849       -2.1834198245
  C        -1.9613436912       -1.9720414940        0.3504422062
  C        -1.6996597283       -1.4378169005        1.6911637522
  C        -1.8276179821       -0.1169833473        1.8628192849
  C         0.8036011321        1.4795533078        0.0074912061
  C         0.5500963269        1.0064614300       -1.2233353537
  C        -2.3051796885       -1.0956904838       -0.6006660948
  N         2.7162636738        0.4052219404       -0.7053537736
  C         1.7577723661        0.3709682864       -1.7877328926
  O         1.9620999652       -0.0902372927       -2.9046606477
  C         2.2067988826        1.2056542384        0.3829949562
  O         2.8515840948        1.5542017119        1.3644940413
  C         4.1245399956        0.3066008354       -0.9462517916
      24
 i =       7, E =     -144.1745324214
  O        -2.1377885989        1.8415312989       -0.3211795468
  O        -4.3669719946        0.4242378118        0.6589358528
  S        -2.7265229975        0.4577385983        0.3355632580
  H         0.2450412212        2.1419760929        0.6457215834
  H        -0.2783394700        1.1674185895       -1.8927427786
  H         4.5789589942        0.1067630163        0.0234610307
  H         4.2440830236       -0.5150928378       -1.6498104890
  H         4.5182516779        1.2371610009       -1.3682867830
 Cl        -1.8566722126       -3.5945579628        0.0200102763
 Cl        -1.2752987841       -2.4253398094        2.9569850501
 Cl        -1.6353574756        0.8578012639        3.1612566839
 Cl        -2.6847106579       -1.2680092394       -2.1836461767
  C        -1.9611880415       -1.9745776840        0.3512112832
  C        -1.6994632834       -1.4402063661        1.6922273676
  C        -1.8302815819       -0.1193000358        1.8636709373
  C         0.8041540708        1.4830898622        0.0055275365
  C         0.5509397351        1.0103864805       -1.2242006306
  C        -2.3076288200       -1.0976242402       -0.5988633087
  N         2.7192864076        0.4040431841       -0.7055260577
  C         1.7617949376        0.3683494538       -1.7973693623
  O         1.9628231769       -0.0857698031       -2.8976502977
  C         2.2136408715        1.2091575056        0.3891605398
  O         2.8494706035        1.5531198100        1.3573318056
  C         4.1289747088        0.3089181089       -0.9481213538
      24
 i =       8, E =     -144.1846552345
  O        -2.0980454946        1.9150370824       -0.3573402684
  O        -4.4229102575        0.4507267200        0.6591843054
  S        -2.7706469657        0.5282284142        0.3161140027
  H         0.2134208149        2.1426815973        0.6587544888
  H        -0.3083083263        1.1648946607       -1.8875542978
  H         4.6487561838        0.1310946919       -0.0015761617
  H         4.3151092788       -0.4895101617       -1.6762285006
  H         4.5662267262        1.2833633028       -1.3967665718
 Cl        -1.8670468198       -3.6550070250        0.0423248435
 Cl        -1.2842669554       -2.4826732848        2.9853870744
 Cl        -1.6351836640        0.8466269122        3.1735940833
 Cl        -2.6864489164       -1.2852982153       -2.1847042563
  C        -1.9597871028       -2.0076732602        0.3617498929
  C        -1.6974086865       -1.4723487774        1.7066101362
  C        -1.8679719268       -0.1505649700        1.8737212073
  C         0.8250852781        1.5303995434       -0.0167394405
  C         0.5744314844        1.0578541213       -1.2439433002
  C        -2.3418732730       -1.1226937889       -0.5730945346
  N         2.7605676171        0.3877296892       -0.7075153654
  C         1.7883798044        0.3929706867       -1.7935550503
  O         1.9936515816       -0.0716877690       -2.9131490457
  C         2.2325859640        1.2213572063        0.3618431346
  O         2.8795248382        1.5692461745        1.3490313282
  C         4.1856875290        0.3406377586       -0.9732216120
      24
 i =       9, E =     -144.1867643883
  O        -2.0994952307        1.9139927551       -0.3565974942
  O        -4.4222906096        0.4528706739        0.6582567698
  S        -2.7709407669        0.5284209070        0.3160604881
  H         0.2139166790        2.1409895453        0.6571629417
  H        -0.3070097656        1.1646096555       -1.8855739559
  H         4.6518948611        0.1321969504       -0.0037244171
  H         4.3186122664       -0.4877252082       -1.6766975747
  H         4.5676915889        1.2835128060       -1.3972081527
 Cl        -1.8667828200       -3.6554894857        0.0436140567
 Cl        -1.2843472773       -2.4840082327        2.9848759821
 Cl        -1.6354996829        0.8445849390        3.1726206234
 Cl        -2.6861325326       -1.2861387819       -2.1826940413
  C        -1.9608550801       -2.0077042089        0.3621943844
  C        -1.6986534391       -1.4721330234        1.7064638382
  C        -1.8698119457       -0.1509591119        1.8733031896
  C         0.8251040917        1.5337451387       -0.0148324808
  C         0.5732765092        1.0592338991       -1.2473925305
  C        -2.3434453304       -1.1223059859       -0.5719284515
  N         2.7613004499        0.3874991452       -0.7076622501
  C         1.7916796439        0.3896232598       -1.8045555207
  O         1.9926028714       -0.0670567619       -2.9032743131
  C         2.2399629162        1.2256593248        0.3705749003
  O         2.8743364590        1.5664831331        1.3398000702
  C         4.1861644831        0.3414537879       -0.9736517078
      24
 i =      10, E =     -144.1878312453
  O        -2.1087889969        1.9084400156       -0.3522476603
  O        -4.4194608309        0.4678233193        0.6520769539
  S        -2.7731154864        0.5287095142        0.3161729498
  H         0.2140327375        2.1325979226        0.6495565307
  H        -0.3027879464        1.1633991814       -1.8752481491
  H         4.6738296809        0.1396704164       -0.0180792725
  H         4.3428947393       -0.4757783812       -1.6802224920
  H         4.5779037979        1.2849535102       -1.4004244746
 Cl        -1.8649354464       -3.6584880587        0.0525318030
 Cl        -1.2850100707       -2.4927717721        2.9808798580
 Cl        -1.6376448837        0.8310728830        3.1666365427
 Cl        -2.6842012593       -1.2919748694       -2.1695800472
  C        -1.9683380496       -2.0082320755        0.3652363689
  C        -1.7069597003       -1.4724351019        1.7060865732
  C        -1.8823088657       -0.1531267049        1.8706449587
  C         0.8322932000        1.5450906282       -0.0210794782
  C         0.5804120655        1.0714217734       -1.2527124390
  C        -2.3539707226       -1.1202977117       -0.5640124600
  N         2.7662386800        0.3861453491       -0.7083764868
  C         1.7962653332        0.4037444315       -1.7966855072
  O         1.9992038151       -0.0652509286       -2.9067227056
  C         2.2394186043        1.2311992867        0.3556885875
  O         2.8808186746        1.5693482115        1.3395961428
  C         4.1892613782        0.3474752005       -0.9768913649
      24
 i =      11, E =     -144.1886734523
  O        -2.1093978522        1.9091424609       -0.3523597334
  O        -4.4204875052        0.4700385291        0.6514349541
  S        -2.7734892178        0.5279448219        0.3165465390
  H         0.2133900917        2.1323146968        0.6493660089
  H        -0.3032591490        1.1634351945       -1.8747692686
  H         4.6768171948        0.1406795112       -0.0195269455
  H         4.3460178065       -0.4744431891       -1.6810219561
  H         4.5791310715        1.2856930047       -1.4010290874
 Cl        -1.8646739833       -3.6585879191        0.0537558609
 Cl        -1.2851908290       -2.4936060640        2.9799677228
 Cl        -1.6379054413        0.8298240222        3.1665542842
 Cl        -2.6841978224       -1.2928096104       -2.1685650797
  C        -1.9694271057       -2.0088223419        0.3657374433
  C        -1.7079694924       -1.4734254992        1.7066227241
  C        -1.8837148530       -0.1536242430        1.8705319740
  C         0.8329837620        1.5463795919       -0.0224443086
  C         0.5815015200        1.0731756117       -1.2528029652
  C        -2.3551446011       -1.1206083639       -0.5631257908
  N         2.7665752642        0.3861426154       -0.7083432406
  C         1.7988394777        0.4010389467       -1.8057041307
  O         1.9986866880       -0.0616343449       -2.8996695693
  C         2.2453264434        1.2345693555        0.3625926799
  O         2.8773741926        1.5676482759        1.3329324810
  C         4.1910366100        0.3482518681       -0.9776584624
      24
 i =      12, E =     -144.1888847562
  O        -2.1102742690        1.9098073441       -0.3523931684
  O        -4.4216944849        0.4728487792        0.6506031386
  S        -2.7740324663        0.5272765401        0.3169180422
  H         0.2126287890        2.1318899786        0.6489896128
  H        -0.3037221397        1.1635076085       -1.8740270567
  H         4.6806171410        0.1419429658       -0.0213617733
  H         4.3499974690       -0.4728106764       -1.6820485632
  H         4.5807319914        1.2866822291       -1.4018019544
 Cl        -1.8643300050       -3.6587859424        0.0552727194
 Cl        -1.2853806769       -2.4947173837        2.9788955113
 Cl        -1.6382335103        0.8282784727        3.1664918194
 Cl        -2.6842099849       -1.2938688116       -2.1673349637
  C        -1.9707879785       -2.0095512306        0.3664231430
  C        -1.7093031916       -1.4744110765        1.7072366362
  C        -1.8854391591       -0.1544887031        1.8704009070
  C         0.8347599740        1.5479515065       -0.0235969344
  C         0.5834479917        1.0748802986       -1.2536094208
  C        -2.3566222742       -1.1210238471       -0.5620273318
  N         2.7676116788        0.3860781595       -0.7084248608
  C         1.7996035505        0.4032565547       -1.8043446834
  O         2.0000542322       -0.0616780051       -2.9015483829
  C         2.2453287694        1.2352505616        0.3601138272
  O         2.8791904288        1.5686811475        1.3339232308
  C         4.1926860058        0.3492664772       -0.9785250504
      24
 i =      13, E =     -144.1908018810
  O        -2.1217506950        1.9152680644       -0.3516190961
  O        -4.4351776572        0.5059208428        0.6407143999
  S        -2.7812735118        0.5230989744        0.3198813188
  H         0.2055283005        2.1257305776        0.6428646181
  H        -0.3065637566        1.1643034266       -1.8639797234
  H         4.7251165084        0.1568611676       -0.0427925053
  H         4.3965142952       -0.4538615419       -1.6944152028
  H         4.5992704855        1.2988735138       -1.4110701301
 Cl        -1.8600192324       -3.6619915153        0.0728217256
 Cl        -1.2869337832       -2.5087803536        2.9675534209
 Cl        -1.6421847085        0.8103347632        3.1660414018
 Cl        -2.6846305203       -1.3063820263       -2.1535988195
  C        -1.9867412276       -2.0180847928        0.3749535389
  C        -1.7258222576       -1.4843345194        1.7130093592
  C        -1.9052582771       -0.1654760829        1.8702503406
  C         0.8515469898        1.5697401412       -0.0327180800
  C         0.5995963153        1.0954319731       -1.2669463597
  C        -2.3740831824       -1.1266204908       -0.5493959726
  N         2.7820020603        0.3853618710       -0.7101966943
  C         1.8160403662        0.4153269779       -1.8181867189
  O         2.0114451121       -0.0513331081       -2.8987061833
  C         2.2639942303        1.2512936299        0.3576601059
  O         2.8861747133        1.5735857486        1.3236261296
  C         4.2115815132        0.3610679309       -0.9881577616
      24
 i =      14, E =     -144.1916630318
  O        -2.1227335882        1.9146916105       -0.3511665840
  O        -4.4353718486        0.5075192247        0.6401592427
  S        -2.7822303787        0.5240181309        0.3196796094
  H         0.2055201212        2.1255485217        0.6424173758
  H        -0.3063518015        1.1644761586       -1.8635891299
  H         4.7268834886        0.1574787641       -0.0436122828
  H         4.3982968034       -0.4531276237       -1.6949930043
  H         4.5998581554        1.2995639666       -1.4115204927
 Cl        -1.8596438298       -3.6625919656        0.0734158738
 Cl        -1.2866824881       -2.5097068112        2.9675065081
 Cl        -1.6424065798        0.8096749653        3.1661803561
 Cl        -2.6848014550       -1.3069800842       -2.1534148353
  C        -1.9875144423       -2.0183641479        0.3752476049
  C        -1.7266362088       -1.4848324695        1.7130136971
  C        -1.9060076592       -0.1654451351        1.8709914764
  C         0.8521198568        1.5697146590       -0.0348484503
  C         0.6008771382        1.0967510117       -1.2656496844
  C        -2.3748874347       -1.1271112182       -0.5491411656
  N         2.7832138634        0.3855828761       -0.7105696602
  C         1.8153028765        0.4195116369       -1.8101213156
  O         2.0133886336       -0.0541603559       -2.9061873841
  C         2.2598401795        1.2493550843        0.3497620885
  O         2.8909504737        1.5760761293        1.3300103538
  C         4.2123754491        0.3615302324       -0.9884172450
      24
 i =      15, E =     -144.1918251193
  O        -2.1250505081        1.9137057131       -0.3502414156
  O        -4.4362413187        0.5117377741        0.6387588484
  S        -2.7845776364        0.5256606110        0.3194403094
  H         0.2059103158        2.1248257710        0.6409408216
  H        -0.3052751242        1.1648861753       -1.8623344491
  H         4.7314523564        0.1591107928       -0.0456910143
  H         4.4028841260       -0.4511838176       -1.6964746473
  H         4.6013337414        1.3013481229       -1.4126506916
 Cl        -1.8586653013       -3.6640814745        0.0749790528
 Cl        -1.2860621996       -2.5120457929        2.9672667862
 Cl        -1.6429678846        0.8080489168        3.1667004481
 Cl        -2.6852609881       -1.3085546774       -2.1529328075
  C        -1.9895463371       -2.0192030756        0.3759775930
  C        -1.7288020716       -1.4855571158        1.7133236596
  C        -1.9079761938       -0.1660493234        1.8726027262
  C         0.8525730601        1.5718899548       -0.0362117702
  C         0.6015416333        1.0992931453       -1.2662270182
  C        -2.3770447274       -1.1282695244       -0.5485037238
  N         2.7857684291        0.3863183461       -0.7113726116
  C         1.8185009381        0.4186572645       -1.8152667019
  O         2.0141792622       -0.0515948912       -2.9030280646
  C         2.2646261311        1.2516744704        0.3528130943
  O         2.8900804961        1.5759067856        1.3262274760
  C         4.2150982599        0.3627449841       -0.9893618785
      24
 i =      16, E =     -144.1921825363
  O        -2.1296371661        1.9125622247       -0.3487224204
  O        -4.4388699694        0.5207934382        0.6358933761
  S        -2.7891871140        0.5277680545        0.3194639896
  H         0.2062738597        2.1237315911        0.6382149213
  H        -0.3036024417        1.1658865686       -1.8600715187
  H         4.7412814085        0.1625524293       -0.0500107762
  H         4.4126836451       -0.4470370804       -1.6996234317
  H         4.6045125321        1.3050870037       -1.4150507491
 Cl        -1.8565254229       -3.6670580093        0.0783399718
 Cl        -1.2847729523       -2.5168187008        2.9664596881
 Cl        -1.6441284058        0.8047630581        3.1681136419
 Cl        -2.6862676556       -1.3119341658       -2.1519190526
  C        -1.9939039493       -2.0210177100        0.3774890173
  C        -1.7333593694       -1.4869157487        1.7144012621
  C        -1.9123557586       -0.1678381357        1.8754694927
  C         0.8559983060        1.5756192738       -0.0390520142
  C         0.6053366650        1.1036294078       -1.2678043505
  C        -2.3817532541       -1.1305862907       -0.5471165836
  N         2.7911970836        0.3879043958       -0.7130620261
  C         1.8215246326        0.4245903318       -1.8097075711
  O         2.0184443995       -0.0522088332       -2.9101380864
  C         2.2646402658        1.2523194821        0.3446346642
  O         2.8961549677        1.5795177586        1.3303892973
  C         4.2207378316        0.3654631578       -0.9915290061
      24
 i =      17, E =     -144.1924289011
  O        -2.1302022690        1.9130468468       -0.3487719191
  O        -4.4399815714        0.5225196337        0.6354637949
  S        -2.7897235870        0.5271023966        0.3198589312
  H         0.2062631697        2.1237316650        0.6378799566
  H        -0.3034380513        1.1661251965       -1.8598693428
  H         4.7430844780        0.1631713647       -0.0507280755
  H         4.4144412112       -0.4462801648       -1.7001875151
  H         4.6051004003        1.3057599058       -1.4154794113
 Cl        -1.8560849335       -3.6673959043        0.0789855634
 Cl        -1.2845627456       -2.5174983206        2.9660497536
 Cl        -1.6443293781        0.8042882514        3.1685940344
 Cl        -2.6864829004       -1.3125683702       -2.1517277574
  C        -1.9947171286       -2.0213658130        0.3777759673
  C        -1.7341277662       -1.4872882284        1.7148522772
  C        -1.9133404804       -0.1683397259        1.8756286989
  C         0.8568864918        1.5764349938       -0.0388877741
  C         0.6060341364        1.1040301429       -1.2687403873
  C        -2.3827186923       -1.1309368001       -0.5468443530
  N         2.7918680687        0.3883007467       -0.7132586305
  C         1.8231361019        0.4228606456       -1.8152221594
  O         2.0181977815       -0.0498597717       -2.9057866783
  C         2.2682165831        1.2543074893        0.3488436779
  O         2.8940815127        1.5785509173        1.3262058795
  C         4.2219641289        0.3660338124       -0.9920888800
      24
 i =      18, E =     -144.1925629923
  O        -2.1315465876        1.9136719199       -0.3486960382
  O        -4.4420709623        0.5260710129        0.6345446086
  S        -2.7908703742        0.5261512991        0.3205029114
  H         0.2061990489        2.1237498822        0.6371830618
  H        -0.3031687572        1.1666427559       -1.8594696457
  H         4.7467679744        0.1644372172       -0.0522336640
  H         4.4180397588       -0.4447395169       -1.7013606312
  H         4.6063488491        1.3071747195       -1.4164013435
 Cl        -1.8551731171       -3.6680663187        0.0802944086
 Cl        -1.2841073293       -2.5188981121        2.9652430598
 Cl        -1.6447660316        0.8032651011        3.1694994082
 Cl        -2.6869350002       -1.3138624608       -2.1513499100
  C        -1.9963668523       -2.0220641822        0.3783867871
  C        -1.7357070435       -1.4881675053        1.7156317126
  C        -1.9153477613       -0.1692084879        1.8760984077