      24
 i =        1, E =      -198.2183682878
  O         2.2756229972        0.0003050726       -2.2700445949
  O         3.1834811575        0.0004236992        0.0634523259
  S         2.0287076360        0.0002562196       -0.8313445708
  H        -0.2864954582       -1.1998527792       -2.2780922571
  H        -0.2867432362        1.1998210228       -2.2780787327
  H        -4.5926648925       -0.8949968397       -0.4614335936
  H        -4.0137487554       -0.0007835446        0.9754225613
  H        -4.5927574180        0.8941179461       -0.4610040285
 Cl         0.0809664223        1.6789633806        2.3632987540
 Cl         0.0814982370       -1.6790121709        2.3632887358
 Cl         0.9470501999       -2.9093816048       -0.3453616595
 Cl         0.9463186994        2.9096130613       -0.3452776369
  C         0.3387396671        0.6699274279        1.0446353922
  C         0.3389716804       -0.6698854826        1.0446368525
  C         0.6312155305       -1.2140958083       -0.3065777381
  C        -0.4834908357       -0.7715852021       -1.2760752318
  C        -0.4836739133        0.7714925592       -1.2760730386
  C         0.6309012572        1.2142453636       -0.3065544743
  N        -2.6735651888       -0.0002957834       -0.7000898107
  C        -1.9088916064        1.1661859330       -0.8354173658
  O        -2.3350445925        2.3057298935       -0.6664111769
  C        -1.9086186319       -1.1666099067       -0.8354257115
  O        -2.3344944890       -2.3062815513       -0.6664100044
  C        -4.0410676405       -0.0004795370       -0.1334236409
      24
 i =        2, E =      -198.2211434202
  O         2.2655080368        0.0003133168       -2.2765803817
  O         3.1757108527        0.0004664030        0.0702557893
  S         2.0346667620        0.0002608147       -0.8328005169
  H        -0.2861951400       -1.1991077637       -2.2733012185
  H        -0.2864193767        1.1990788553       -2.2732868365
  H        -4.5875499856       -0.8960543692       -0.4638849687
  H        -4.0090392687       -0.0008619088        0.9732017247
  H        -4.5876523920        0.8951682791       -0.4634126491
 Cl         0.0784969984        1.6836428508        2.3762676530
 Cl         0.0790317474       -1.6836923320        2.3762563564
 Cl         0.9551653861       -2.9116245750       -0.3513230232
 Cl         0.9544336005        2.9118564342       -0.3512390439
  C         0.3411116856        0.6831385919        1.0406825549
  C         0.3413285119       -0.6830977384        1.0406798747
  C         0.6147418779       -1.2252210298       -0.3073481137
  C        -0.4851325928       -0.7636481827       -1.2815125945
  C        -0.4853125948        0.7635550351       -1.2815141491
  C         0.6144218513        1.2253701216       -0.3073241629
  N        -2.6625585587       -0.0002904533       -0.6862090857
  C        -1.9183876921        1.1696066003       -0.8338062998
  O        -2.3284405374        2.2952655510       -0.6654834018
  C        -1.9181176577       -1.1700515922       -0.8338065584
  O        -2.3278761448       -2.2958198590       -0.6655166972
  C        -4.0271178270       -0.0004816638       -0.1406134625
      24
 i =        3, E =      -198.2230706304
  O         2.2526260922        0.0003285602       -2.2780891385
  O         3.1655064713        0.0005315026        0.0768762685
  S         2.0395820226        0.0002736907       -0.8402407786
  H        -0.2852876871       -1.1994070047       -2.2705914660
  H        -0.2854807392        1.1993811024       -2.2705759991
  H        -4.5771591511       -0.8957378922       -0.4677373919
  H        -4.0020331085       -0.0009807289        0.9662868484
  H        -4.5772781320        0.8948408262       -0.4671960350
 Cl         0.0770413650        1.6845358934        2.3869350515
 Cl         0.0775773006       -1.6845869685        2.3869230939
 Cl         0.9653845419       -2.9161073296       -0.3602563768
 Cl         0.9646517559        2.9163406039       -0.3601725584
  C         0.3405386572        0.6871319574        1.0450871740
  C         0.3407346782       -0.6870910872        1.0450786542
  C         0.5962317774       -1.2369223761       -0.3098583140
  C        -0.4921179210       -0.7613277806       -1.2834662246
  C        -0.4922977664        0.7612327996       -1.2834718721
  C         0.5959079095        1.2370657300       -0.3098325708
  N        -2.6632979582       -0.0002919748       -0.6664558389
  C        -1.9103713602        1.1599203872       -0.8374522844
  O        -2.3280658415        2.2967015130       -0.6617205550
  C        -1.9100996207       -1.1603570229       -0.8374495279
  O        -2.3274691698       -2.2972928640       -0.6618165361
  C        -4.0142050070       -0.0004959752       -0.1439713095
      24
 i =        4, E =      -198.2244331024
  O         2.2406342579        0.0003647791       -2.2861717396
  O         3.1580609895        0.0006291932        0.0834211035
  S         2.0286859366        0.0002959145       -0.8412417870
  H        -0.2844869293       -1.2006576820       -2.2707058900
  H        -0.2846441874        1.2006335921       -2.2706878591
  H        -4.5599117704       -0.8940816250       -0.4733612978
  H        -3.9931447696       -0.0011551536        0.9583477598
  H        -4.5600487207        0.8931691525       -0.4727114805
 Cl         0.0770660849        1.6817578802        2.3954194319
 Cl         0.0776002811       -1.6818111973        2.3954068779
 Cl         0.9762121054       -2.9222909184       -0.3722202679
 Cl         0.9754781612        2.9225271536       -0.3721365695
  C         0.3365527241        0.6797764167        1.0526063466
  C         0.3367281078       -0.6797357704        1.0525924285
  C         0.5807846202       -1.2444770012       -0.3083026231
  C        -0.5006170426       -0.7660230442       -1.2834718670
  C        -0.5007977096        0.7659307142       -1.2834807952
  C         0.5804615668        1.2446110437       -0.3082769909
  N        -2.6562895455       -0.0003080825       -0.6507832131
  C        -1.9050135434        1.1632942114       -0.8385638270
  O        -2.3238934827        2.2883557334       -0.6593671418
  C        -1.9047338810       -1.1637338062       -0.8385677860
  O        -2.3232476754       -2.2889821788       -0.6595557633
  C        -4.0106564167       -0.0005272901       -0.1418546763
      24
 i =        5, E =      -198.2254475395
  O         2.2288256776        0.0004211920       -2.2909175199
  O         3.1468031068        0.0007522036        0.0824907153
  S         2.0116650458        0.0003314543       -0.8381908466
  H        -0.2843770872       -1.2022973141       -2.2730086027
  H        -0.2845028581        1.2022736977       -2.2729867342
  H        -4.5408418852       -0.8945256831       -0.4812814844
  H        -3.9850186569       -0.0013856280        0.9576934463
  H        -4.5409791231        0.8935986511       -0.4804827104
 Cl         0.0786626401        1.6754783861        2.4009503612
 Cl         0.0791914598       -1.6755336769        2.4009365491
 Cl         0.9847323762       -2.9255899394       -0.3843415499
 Cl         0.9839982254        2.9258294395       -0.3842578397
  C         0.3296544974        0.6845586189        1.0580923532
  C         0.3298246247       -0.6845203483        1.0580764139
  C         0.5734242772       -1.2445618511       -0.3008249394
  C        -0.5041661175       -0.7717948739       -1.2834091333
  C        -0.5043509613        0.7717134636       -1.2834171391
  C         0.5731086473        1.2446881715       -0.3008008389
  N        -2.6398825649       -0.0003314573       -0.6435334607
  C        -1.9046425706        1.1579747160       -0.8365431327
  O        -2.3227791008        2.2906670177       -0.6565002014
  C        -1.9043466771       -1.1584403482       -0.8365704741
  O        -2.3220484746       -2.2913488788       -0.6568163586
  C        -4.0080276137       -0.0005731329       -0.1392092075
      24
 i =        6, E =      -198.2265355009
  O         2.2076157622        0.0005131591       -2.2825487672
  O         3.1253489346        0.0009561996        0.0737474352
  S         1.9920164189        0.0003992494       -0.8408234102
  H        -0.2848927110       -1.2048016457       -2.2764840102
  H        -0.2849854849        1.2047791589       -2.2764551704
  H        -4.5169727699       -0.8996873349       -0.4952916967
  H        -3.9755871138       -0.0017880642        0.9650913829
  H        -4.5170802677        0.8987317178       -0.4942483528
 Cl         0.0815942194        1.6672833103        2.4100645037
 Cl         0.0821130552       -1.6673414502        2.4100490580
 Cl         0.9936926107       -2.9235232252       -0.3997873452
 Cl         0.9929604928        2.9237684619       -0.3997030460
  C         0.3178246588        0.6868556476        1.0616160133
  C         0.3180000425       -0.6868240183        1.0615996526
  C         0.5706261135       -1.2434096240       -0.2906076554
  C        -0.5022055682       -0.7728296265       -1.2837636379
  C        -0.5024043812        0.7727688748       -1.2837608640
  C         0.5703177074        1.2435343095       -0.2905857817
  N        -2.6333135871       -0.0003739201       -0.6330681998
  C        -1.9055692386        1.1646393576       -0.8309274468
  O        -2.3215081333        2.2898140713       -0.6536065263
  C        -1.9052190247       -1.1651408466       -0.8310188756
  O        -2.3206420517       -2.2906171258       -0.6541279069
  C        -3.9915342604       -0.0006535973       -0.1390941884
      24
 i =        7, E =      -198.2270488131
  O         2.1934991637        0.0005484854       -2.2803775754
  O         3.1144696702        0.0010854487        0.0687830566
  S         1.9813477228        0.0004455425       -0.8370785505
  H        -0.2851934348       -1.2057854881       -2.2771922880
  H        -0.2852781148        1.2057652366       -2.2771561156
  H        -4.5051996078       -0.9024992206       -0.5030249563
  H        -3.9721064058       -0.0020673931        0.9691100671
  H        -4.5052830313        0.9015046515       -0.5018589393
 Cl         0.0832770807        1.6639313816        2.4165779126
 Cl         0.0837897235       -1.6639915386        2.4165620469
 Cl         0.9974766835       -2.9191519086       -0.4068686074
 Cl         0.9967468751        2.9194031537       -0.4067831367
  C         0.3109141903        0.6832048351        1.0625744190
  C         0.3110962744       -0.6831773429        1.0625579586
  C         0.5713392443       -1.2431241384       -0.2895128817
  C        -0.5005780493       -0.7711898523       -1.2836150898
  C        -0.5007930963        0.7711437045       -1.2836024522
  C         0.5710249162        1.2432541154       -0.2894914339
  N        -2.6323253392       -0.0004069600       -0.6275519515
  C        -1.9013078688        1.1630439600       -0.8290114006
  O        -2.3242325705        2.2953419269       -0.6510446393
  C        -1.9009322199       -1.1635954854       -0.8291473732
  O        -2.3232625840       -2.2962115805       -0.6517035742
  C        -3.9826539447       -0.0007172161       -0.1383545302
      24
 i =        8, E =      -198.2274855334
  O         2.1737166435        0.0005179341       -2.2812165877
  O         3.1094958779        0.0012596361        0.0687716621
  S         1.9674324932        0.0005045859       -0.8320350244
  H        -0.2854587271       -1.2055902870       -2.2750985020
  H        -0.2855571224        1.2055773056       -2.2750464432
  H        -4.4937379876       -0.9034388289       -0.5093415333
  H        -3.9717393423       -0.0024838862        0.9705280817
  H        -4.4937865776        0.9023374613       -0.5080937298
 Cl         0.0852492388        1.6612036984        2.4240964640
 Cl         0.0857542671       -1.6612663268        2.4240808350
 Cl         1.0000889377       -2.9102832598       -0.4116288431
 Cl         0.9993623296        2.9105480463       -0.4115395028
  C         0.3034090083        0.6816028554        1.0635628099
  C         0.3036050442       -0.6815786366        1.0635445919
  C         0.5745049676       -1.2412446694       -0.2954301041
  C        -0.4991697013       -0.7688509420       -1.2837489011
  C        -0.4994178071        0.7688193507       -1.2837193645
  C         0.5741594837        1.2413946733       -0.2954054385
  N        -2.6252348099       -0.0004657800       -0.6240276263
  C        -1.8977353515        1.1681941545       -0.8258988663
  O        -2.3257928038        2.2949354814       -0.6493227941
  C        -1.8973049391       -1.1687971544       -0.8261140340
  O        -2.3247051304       -2.2959144718       -0.6501390690
  C        -3.9809145318       -0.0008221469       -0.1355896566
      24
 i =        9, E =      -198.2276696628
  O         2.1613163343        0.0004626919       -2.2783522579
  O         3.1065893031        0.0013786939        0.0695399957
  S         1.9659936150        0.0005343227       -0.8328016172
  H        -0.2853570729       -1.2047729127       -2.2732371166
  H        -0.2854807265        1.2047694244       -2.2731702230
  H        -4.4885023178       -0.9029748459       -0.5107892236
  H        -3.9738372065       -0.0028022147        0.9700121965
  H        -4.4885244424        0.9017520997       -0.5095212340
 Cl         0.0864563248        1.6596305424        2.4265871853
 Cl         0.0869577492       -1.6596931536        2.4265696017
 Cl         1.0015532370       -2.9055640098       -0.4127817641
 Cl         1.0008247586        2.9058424568       -0.4126876625
  C         0.3001224191        0.6852307438        1.0636353317
  C         0.3003283809       -0.6852059185        1.0636147134
  C         0.5756853250       -1.2365602217       -0.2982631755
  C        -0.4997767173       -0.7698514748       -1.2841879510
  C        -0.5000539885        0.7698269804       -1.2841455251
  C         0.5753061941        1.2367328103       -0.2982357657
  N        -2.6202305786       -0.0005107080       -0.6217738561
  C        -1.8957747355        1.1669472896       -0.8243239114
  O        -2.3267657658        2.2954567898       -0.6483433169
  C        -1.8953072459       -1.1676051450       -0.8245890370
  O        -2.3255987881       -2.2965153193       -0.6492521122
  C        -3.9806111550       -0.0009007568       -0.1355120812
      24
 i =       10, E =      -198.2277955953
  O         2.1489635055        0.0004174616       -2.2772648855
  O         3.1033910247        0.0015271511        0.0703456591
  S         1.9675854160        0.0005580558       -0.8302379758
  H        -0.2848941346       -1.2041295131       -2.2723050785
  H        -0.2850630153        1.2041423065       -2.2722167575
  H        -4.4843442908       -0.9027147021       -0.5108242787
  H        -3.9778493190       -0.0032393457        0.9686113885
  H        -4.4843330897        0.9012952365       -0.5095330757
 Cl         0.0877832162        1.6586163313        2.4275904746
 Cl         0.0882824206       -1.6586768479        2.4275670318
 Cl         1.0035180064       -2.9016714413       -0.4129724089
 Cl         1.0027816275        2.9019717637       -0.4128701470
  C         0.2978714425        0.6833602196        1.0626776693
  C         0.2980863775       -0.6833298733        1.0626545099
  C         0.5762280665       -1.2307722829       -0.2988410605
  C        -0.5012995015       -0.7705312893       -1.2842447173
  C        -0.5016185143        0.7705114546       -1.2841853397
  C         0.5757995706        1.2309782297       -0.2988117724
  N        -2.6186905140       -0.0005743153       -0.6172694241
  C        -1.8950743576        1.1672932919       -0.8224806495
  O        -2.3264302639        2.2928288182       -0.6477587578
  C        -1.8945560682       -1.1680352563       -0.8228011525
  O        -2.3251696010       -2.2939988900       -0.6487639707
  C        -3.9770601400       -0.0010140172       -0.1369500461
      24
 i =       11, E =      -198.2278755544
  O         2.1394294668        0.0004075192       -2.2766155011
  O         3.1044190636        0.0016733918        0.0735532307
  S         1.9640383107        0.0005779995       -0.8293369559
  H        -0.2843575458       -1.2040373737       -2.2725311743
  H        -0.2845771621        1.2040682910       -2.2724207860
  H        -4.4813859273       -0.9030661458       -0.5104940263
  H        -3.9818739437       -0.0037014888        0.9671307741
  H        -4.4813458240        0.9014242457       -0.5091517048
 Cl         0.0889787721        1.6578126820        2.4268935213
 Cl         0.0894775707       -1.6578702025        2.4268617538
 Cl         1.0054644171       -2.8986219118       -0.4125165009
 Cl         1.0047138627        2.8989451789       -0.4124048952
  C         0.2965659180        0.6813419355        1.0625893437
  C         0.2967890859       -0.6813001414        1.0625644726
  C         0.5766902937       -1.2279034696       -0.2980672230
  C        -0.5022687453       -0.7693977783       -1.2839141357
  C        -0.5026287494        0.7693793647       -1.2838394973
  C         0.5762159350        1.2281355194       -0.2980387544
  N        -2.6178557950       -0.0006437182       -0.6126146061
  C        -1.8944350769        1.1652311415       -0.8211480683
  O        -2.3267746726        2.2923390673       -0.6469249409
  C        -1.8938647608       -1.1660637038       -0.8215121194
  O        -2.3254092538       -2.2936400247       -0.6480225068
  C        -3.9735007099       -0.0011475386       -0.1375674295
      24
 i =       12, E =      -198.2279453066
  O         2.1299878847        0.0004356224       -2.2761051621
  O         3.1039045615        0.0018385432        0.0751428801
  S         1.9605604671        0.0006174494       -0.8250774528
  H        -0.2839744719       -1.2040936148       -2.2729522829
  H        -0.2842615152        1.2041486446       -2.2728142443
  H        -4.4781610363       -0.9039558901       -0.5101062465
  H        -3.9862746360       -0.0043368200        0.9660702847
  H        -4.4780920957        0.9019891394       -0.5086403361
 Cl         0.0902569985        1.6570713383        2.4247592806
 Cl         0.0907575266       -1.6571241090        2.4247144814
 Cl         1.0079172113       -2.8954682978       -0.4113749490
 Cl         1.0071397374        2.8958186889       -0.4112510274
  C         0.2957493121        0.6829011087        1.0639224108
  C         0.2959848954       -0.6828383975        1.0638960578
  C         0.5768229615       -1.2279466085       -0.2966427547
  C        -0.5022431383       -0.7676270425       -1.2839908975
  C        -0.5026531303        0.7676037448       -1.2838987888
  C         0.5762994254        1.2282005303       -0.2966175371
  N        -2.6152110710       -0.0007433210       -0.6073856209
  C        -1.8949292342        1.1648230783       -0.8192880254
  O        -2.3267797612        2.2909502852       -0.6461000616
  C        -1.8942869924       -1.1657895702       -0.8196973364
  O        -2.3252620134       -2.2924341200       -0.6473104143
  C        -3.9722523356       -0.0013467825       -0.1368912475
      24
 i =       13, E =      -198.2280300215
  O         2.1171856666        0.0005351525       -2.2695909701
  O         3.1000800231        0.0020752534        0.0745195742
  S         1.9582650153        0.0007102800       -0.8213950743
  H        -0.2839047453       -1.2038338394       -2.2726729732
  H        -0.2843010077        1.2039266301       -2.2724910261
  H        -4.4731515322       -0.9059620614       -0.5100184929
  H        -3.9920735574       -0.0054903472        0.9671570040
  H        -4.4730540234        0.9033722471       -0.5082359109
 Cl         0.0915607061        1.6583128167        2.4231875667
 Cl         0.0920680927       -1.6583558141        2.4231193386
 Cl         1.0122594883       -2.8929285869       -0.4092384784
 Cl         1.0114220264        2.8933163308       -0.4090957595
  C         0.2954141965        0.6825046622        1.0651882900
  C         0.2956718986       -0.6824052263        1.0651582944
  C         0.5755420035       -1.2298108204       -0.2941204547
  C        -0.5010828895       -0.7680871605       -1.2847515815
  C        -0.5015731060        0.7680386910       -1.2846326561
  C         0.5749513037        1.2300933914       -0.2941002124
  N        -2.6123744066       -0.0009306233       -0.5989020605
  C        -1.8935437366        1.1641733572       -0.8170401540
  O        -2.3277506169        2.2907217201       -0.6445650709
  C        -1.8927633060       -1.1653859256       -0.8175194790
  O        -2.3259392801       -2.2925483662       -0.6459594330
  C        -3.9736013656       -0.0017231992       -0.1351418061
      24
 i =       14, E =      -198.2280997456
  O         2.1090510120        0.0006549832       -2.2662424440
  O         3.0992144713        0.0022768749        0.0752002503
  S         1.9524663420        0.0007996358       -0.8183487713
  H        -0.2838207300       -1.2039217442       -2.2727013760
  H        -0.2843070196        1.2040405942       -2.2724811936
  H        -4.4691733853       -0.9083522606       -0.5105976518
  H        -3.9963508508       -0.0066056111        0.9696752240
  H        -4.4690798561        0.9051353292       -0.5084528719
 Cl         0.0921194125        1.6608596616        2.4238045471
 Cl         0.0926356801       -1.6608925978        2.4237167759
 Cl         1.0162161391       -2.8932606408       -0.4073061477
 Cl         1.0153138460        2.8936781671       -0.4071506209
  C         0.2953246959        0.6816853481        1.0653888119
  C         0.2956030111       -0.6815592469        1.0653524676
  C         0.5743222982       -1.2298194893       -0.2925137848
  C        -0.5003985082       -0.7695342562       -1.2839830227
  C        -0.5009620642        0.7694509647       -1.2838408414
  C         0.5736732097        1.2301304020       -0.2924926427
  N        -2.6110986995       -0.0011088559       -0.5920652069
  C        -1.8923559140        1.1651711740       -0.8151514119
  O        -2.3282490073        2.2899697126       -0.6435511720
  C        -1.8914371248       -1.1666250031       -0.8156989036
  O        -2.3261557281       -2.2921319936       -0.6450940031
  C        -3.9737812865       -0.0021051544       -0.1331488367
      24
 i =       15, E =      -198.2281366035
  O         2.1063521672        0.0007513326       -2.2665989509
  O         3.0979395330        0.0023914197        0.0749892425
  S         1.9501898498        0.0008599601       -0.8153922586
  H        -0.2836750298       -1.2042037773       -2.2727692934
  H        -0.2842111353        1.2043290660       -2.2725236484
  H        -4.4669377577       -0.9098747524       -0.5112210740
  H        -3.9984524085       -0.0073999803        0.9716805586
  H        -4.4668831024        0.9061757910       -0.5087866930
 Cl         0.0921350268        1.6625694431        2.4247719702
 Cl         0.0926591080       -1.6625956870        2.4246743340
 Cl         1.0184600049       -2.8944592666       -0.4060735390
 Cl         1.0175069057        2.8948966107       -0.4059147612
  C         0.2949630643        0.6828558441        1.0664933344
  C         0.2952551347       -0.6827198579        1.0664498161
  C         0.5741863626       -1.2293962771       -0.2922984292
  C        -0.5008765443       -0.7700416990       -1.2827129660
  C        -0.5014908806        0.7699275812       -1.2825546180
  C         0.5734924146        1.2297266876       -0.2922696167
  N        -2.6095189135       -0.0012347620       -0.5893421822
  C        -1.8922696434        1.1644189483       -0.8138359845
  O        -2.3286798059        2.2906726654       -0.6430908956
  C        -1.8912612667       -1.1660539071       -0.8144271896
  O        -2.3263846334       -2.2930670196       -0.6447149155
  C        -3.9730069048       -0.0023927396       -0.1315157030
      24
 i =       16, E =      -198.2281785848
  O         2.1030023198        0.0009511244       -2.2650707100
  O         3.0958310248        0.0025993742        0.0752558317
  S         1.9475485379        0.0009724219       -0.8157324816
  H        -0.2835881143       -1.2045253501       -2.2720638161
  H        -0.2842119549        1.2046501438       -2.2717661075
  H        -4.4626282045       -0.9120282837       -0.5121765766
  H        -4.0016321884       -0.0090087758        0.9751361334
  H        -4.4626966949        0.9073013237       -0.5091460509
 Cl         0.0918564445        1.6655959423        2.4268623148
 Cl         0.0923977937       -1.6656110977        2.4267490397
 Cl         1.0220759942       -2.8964317393       -0.4038770061
 Cl         1.0210157856        2.8969092961       -0.4037177079
  C         0.2939124324        0.6837057844        1.0696622045
  C         0.2942307372       -0.6835569534        1.0696017505
  C         0.5747281493       -1.2295047103       -0.2917842725
  C        -0.5021448908       -0.7704342500       -1.2809467224
  C        -0.5028593207        0.7702520222       -1.2807546870
  C         0.5739359248        1.2298701575       -0.2917340208
  N        -2.6073865651       -0.0014941734       -0.5853483248
  C        -1.8931913240        1.1650468983       -0.8109846679
  O        -2.3288275665        2.2905949474       -0.6427389656
  C        -1.8919959947       -1.1670332007       -0.8116612635
  O        -2.3261423824       -2.2934628576       -0.6444978527
  C        -3.9713071050       -0.0029854100       -0.1288208565
      24
 i =       17, E =      -198.2282158329
  O         2.1010717306        0.0011680629       -2.2646468748
  O         3.0929921621        0.0028034636        0.0751320468
  S         1.9470971596        0.0010861718       -0.8163624342
  H        -0.2839827931       -1.2043575263       -2.2701249173
  H        -0.2846948636        1.2044705069       -2.2697675560
  H        -4.4579623186       -0.9129963670       -0.5124529790
  H        -4.0041287387       -0.0107745389        0.9773259898
  H        -4.4582166911        0.9070775010       -0.5087964752
 Cl         0.0913739516        1.6681450711        2.4288589110
 Cl         0.0919357086       -1.6681524337        2.4287303034
 Cl         1.0248698688       -2.8968979341       -0.4018618648
 Cl         1.0236878225        2.8974185035       -0.4017064298
  C         0.2930261420        0.6822054169        1.0725302621
  C         0.2933729871       -0.6820458765        1.0724512029
  C         0.5754294313       -1.2304903570       -0.2900562448
  C        -0.5029180579       -0.7708368909       -1.2802358342
  C        -0.5037397077        0.7705767205       -1.2800049821
  C         0.5745232220        1.2308849087       -0.2899822362
  N        -2.6076565868       -0.0017795542       -0.5813173718
  C        -1.8928405873        1.1650466473       -0.8088042901
  O        -2.3296681568        2.2913903890       -0.6422498753
  C        -1.8914426933       -1.1674264076       -0.8095584897
  O        -2.3265565614       -2.2947570834       -0.6441509398
  C        -3.9703145627       -0.0036470368       -0.1269570523
      24
 i =       18, E =      -198.2282494627
  O         2.1006360643        0.0013757251       -2.2664317425
  O         3.0915867830        0.0029911794        0.0755566067
  S         1.9461156285        0.0011873905       -0.8159924543
  H        -0.2845615221       -1.2042063008       -2.2682413623
  H        -0.2853562247        1.2043002168       -2.2678246046
  H        -4.4540582731       -0.9133182125       -0.5122665042
  H        -4.0058647678       -0.0125154296        0.9778631851
  H        -4.4545461764        0.9061603421       -0.5080319230
 Cl         0.0908337470        1.6693975928        2.4300325613
 Cl         0.0914172089       -1.6694021883        2.4298883330
 Cl         1.0265516249       -2.8959959650       -0.4001467425
 Cl         1.0252441506        2.8965531805       -0.3999982152
  C         0.2926760036        0.6830419804        1.0744011812
  C         0.2930544778       -0.6828742245        1.0743052048
  C         0.5756475021       -1.2307967089       -0.2876996648
  C        -0.5027010870       -0.7708925526       -1.2790169910
  C        -0.5036289846        0.7705491144       -1.2787490957
  C         0.5746291497        1.2312121612       -0.2876040541
  N        -2.6073214016       -0.0020537260       -0.5783992238
  C        -1.8928488605        1.1654693397       -0.8072905896
  O        -2.3303337262        2.2914266348       -0.6418460834
  C        -1.8912367223       -1.1682170368       -0.8081122684
  O        -2.3268263323       -2.2952910598       -0.6438758458
  C        -3.9702455727       -0.0043165372       -0.1253783038
      24
 i =       19, E =      -198.2282690293
  O         2.1008083047        0.0015132085       -2.2664293920
  O         3.0921112826        0.0031119420        0.0763752386
  S         1.9453659906        0.0012523735       -0.8173933060
  H        -0.2847812087       -1.2043623561       -2.2674953025
  H        -0.2856337112        1.2044380277       -2.2670381031
  H        -4.4527247928       -0.9138761347       -0.5121832282
  H        -4.0066174932       -0.0137719542        0.9776822700
  H        -4.4534236484        0.9057553558       -0.5075627184
 Cl         0.0904108152        1.6693098952        2.4303703640
 Cl         0.0910119390       -1.6693178986        2.4302128875
 Cl         1.0269544877       -2.8948091722       -0.3991901757
 Cl         1.0255498943        2.8953829737       -0.3990488632
  C         0.2928633647        0.6834413259        1.0749972126
  C         0.2932674596       -0.6832703274        1.0748916417
  C         0.5751605914       -1.2301388047       -0.2863802272