      24
 i =        1, E =      -198.1237681355
  O        -1.2613745756        0.6365370627       -0.0099145690
  O        -3.7042119108        1.0403684484        0.3083700163
  S        -2.5596183464        0.1456890710        0.4387133269
  H         1.3272653547        1.9903043815        0.4879897170
  H         0.7745851840        1.0650132607       -1.9597419163
  H         6.1415314727        1.9514039300       -1.0658953375
  H         5.7723586534        1.3322078549       -2.7036809398
  H         5.4168561951        3.0364921131       -2.2889137222
 Cl        -3.2276924708       -4.0568068217        0.4957003086
 Cl        -2.6626083982       -2.9052834816        3.4040011771
 Cl        -2.1383474811        0.2797092451        3.4810127229
 Cl        -3.1762703282       -1.8259602502       -1.8379988399
  C        -2.9340389511       -2.4229810456        0.7396722060
  C        -2.6765086752       -1.8999830248        2.0604716333
  C        -2.4588451592       -0.5743050282        2.0894033326
  C         2.0336834033        1.8126908859       -0.3291036275
  C         1.7552507890        1.3459963499       -1.5636884713
  C        -2.9114476496       -1.4920868372       -0.2288059736
  N         4.0888928335        1.5775691674       -1.4401032989
  C         3.0360429824        1.2485744854       -2.3328502532
  O         3.1852792530        0.9337493808       -3.5217519339
  C         3.5098756727        2.0432373580       -0.2298618129
  O         4.1398615501        2.5343226165        0.7155272300
  C         5.4227752686        1.9991388434       -1.8990730865
      24
 i =        2, E =      -198.1263353665
  O        -1.2564444787        0.6317491391       -0.0096952477
  O        -3.7083577327        1.0363842480        0.3103101742
  S        -2.5609642678        0.1460715274        0.4388346079
  H         1.3280947214        1.9923368735        0.4905401697
  H         0.7734002993        1.0662174131       -1.9616417161
  H         6.1409537235        1.9499108605       -1.0639783971
  H         5.7706548398        1.3293689472       -2.7038292453
  H         5.4153843510        3.0368435794       -2.2874146502
 Cl        -3.2300945728       -4.0680982261        0.4919584477
 Cl        -2.6620723314       -2.9108593605        3.4147699513
 Cl        -2.1350035162        0.2954137097        3.4871758043
 Cl        -3.1773449597       -1.8189888676       -1.8538919391
  C        -2.9334821682       -2.4225553278        0.7432323833
  C        -2.6771136266       -1.9019490032        2.0574379143
  C        -2.4569758355       -0.5689769583        2.0942830276
  C         2.0387312181        1.8121342734       -0.3307413754
  C         1.7605798909        1.3459543311       -1.5640196943
  C        -2.9118420560       -1.4913988257       -0.2359937331
  N         4.0755908252        1.5941821409       -1.4437300343
  C         3.0494926068        1.2447462756       -2.3351934258
  O         3.1832349110        0.9399997510       -3.5065541420
  C         3.5236954568        2.0397622175       -0.2309137673
  O         4.1328171588        2.5298464416        0.7023342095
  C         5.4118859351        1.9932482758       -1.8944230915
      24
 i =        3, E =      -198.1286235785
  O        -1.2540396156        0.6193971074       -0.0067512877
  O        -3.7125567922        1.0254741308        0.3141159747
  S        -2.5589923146        0.1534694665        0.4354065997
  H         1.3339521683        1.9958800342        0.4918640933
  H         0.7762201462        1.0700545388       -1.9645507518
  H         6.1354040535        1.9458939514       -1.0618640656
  H         5.7639022289        1.3253702308       -2.7007111265
  H         5.4123513859        3.0315652387       -2.2820859604
 Cl        -3.2326533737       -4.0785832610        0.4867560010
 Cl        -2.6611761232       -2.9148333471        3.4259409164
 Cl        -2.1300403270        0.3220001193        3.4921071408
 Cl        -3.1780081523       -1.8033812306       -1.8765283524
  C        -2.9364953220       -2.4340655620        0.7335864719
  C        -2.6751653524       -1.9035929483        2.0725117537
  C        -2.4532317679       -0.5607447809        2.1081001460
  C         2.0456294054        1.8096895769       -0.3320050767
  C         1.7677465192        1.3443338649       -1.5633972986
  C        -2.9138059983       -1.4948254117       -0.2518551152
  N         4.0775328329        1.6233432185       -1.4555503592
  C         3.0497973608        1.2435298269       -2.3211580837
  O         3.1871726052        0.9459865483       -3.5016948371
  C         3.5198002080        2.0298932716       -0.2393009845
  O         4.1371767561        2.5292402095        0.6928387776
  C         5.3985258893        1.9881172816       -1.8896374510
      24
 i =        4, E =      -198.1298179079
  O        -1.2469631933        0.6116561290       -0.0062705025
  O        -3.7197518765        1.0197334617        0.3155606837
  S        -2.5583512696        0.1445863181        0.4383289708
  H         1.3433742142        1.9985685327        0.4894598429
  H         0.7844436597        1.0750241216       -1.9666109670
  H         6.1260564816        1.9406454452       -1.0611253237
  H         5.7536912321        1.3231409709       -2.6952667126
  H         5.4108116707        3.0247613720       -2.2761597271
 Cl        -3.2342780387       -4.0839906958        0.4826819144
 Cl        -2.6603972360       -2.9158947993        3.4326624881
 Cl        -2.1263288145        0.3445445411        3.4922531864
 Cl        -3.1777043556       -1.7873297073       -1.8925141958
  C        -2.9373834336       -2.4335702973        0.7248117889
  C        -2.6731322611       -1.8976140249        2.0783432279
  C        -2.4521421726       -0.5650612299        2.1174000612
  C         2.0446184227        1.8058268122       -0.3274986640
  C         1.7652183136        1.3394946880       -1.5618964117
  C        -2.9153631645       -1.5045523019       -0.2555805396
  N         4.0737196205        1.6375060791       -1.4609287490
  C         3.0451644754        1.2446547740       -2.3226865932
  O         3.1919044005        0.9499595901       -3.4985941314
  C         3.5169872602        2.0317917774       -0.2374482933
  O         4.1426308687        2.5272500387        0.6860363849
  C         5.4056545256        1.9918945401       -1.8924859189
      24
 i =        5, E =      -198.1306159687
  O        -1.2448119440        0.6019135379       -0.0039406018
  O        -3.7203227139        1.0081196938        0.3165267501
  S        -2.5591151520        0.1356786163        0.4410351269
  H         1.3498279249        2.0020278206        0.4908728560
  H         0.7892483597        1.0788696668       -1.9711643782
  H         6.1181270986        1.9335215202       -1.0573799561
  H         5.7419731722        1.3190964592       -2.6927710753
  H         5.4118893416        3.0246744895       -2.2722981348
 Cl        -3.2351672034       -4.0849788540        0.4794323991
 Cl        -2.6596911885       -2.9143889429        3.4356943965
 Cl        -2.1237232185        0.3650878789        3.4860780129
 Cl        -3.1761664720       -1.7684189880       -1.9025294629
  C        -2.9368061973       -2.4356546448        0.7296278750
  C        -2.6737833250       -1.9021406797        2.0759742724
  C        -2.4499137388       -0.5625328126        2.1259685586
  C         2.0433234434        1.7981644398       -0.3290077931
  C         1.7651436147        1.3359971879       -1.5533126327
  C        -2.9165507861       -1.5087226991       -0.2638824483
  N         4.0649998185        1.6450255285       -1.4626082544
  C         3.0423650395        1.2510910525       -2.3242199839
  O         3.1963598290        0.9509406209       -3.5040072460
  C         3.5156007388        2.0369097828       -0.2399584678
  O         4.1496687662        2.5278361057        0.6884446637
  C         5.4105624075        1.9947332893       -1.8943580289
      24
 i =        6, E =      -198.1316002622
  O        -1.2492781807        0.5839170435        0.0025042663
  O        -3.7185121659        0.9861327888        0.3168361666
  S        -2.5556824133        0.1224370767        0.4434993297
  H         1.3563396712        2.0069732121        0.4964209880
  H         0.7929511758        1.0830970176       -1.9799110316
  H         6.1092582089        1.9202352838       -1.0472523729
  H         5.7225807501        1.3105886498       -2.6943142051
  H         5.4171176331        3.0333048152       -2.2692434128
 Cl        -3.2359862769       -4.0836720250        0.4758953284
 Cl        -2.6588173680       -2.9109232054        3.4372101451
 Cl        -2.1207331666        0.3942538577        3.4712363559
 Cl        -3.1728290960       -1.7375115646       -1.9126843213
  C        -2.9360714063       -2.4372055556        0.7327266991
  C        -2.6737715380       -1.9052232409        2.0741974075
  C        -2.4482165763       -0.5635900259        2.1317250380
  C         2.0458266850        1.7914192982       -0.3189348207
  C         1.7641121687        1.3264139142       -1.5534783371
  C        -2.9168912216       -1.5141405995       -0.2674176276
  N         4.0601728656        1.6553686579       -1.4657345428
  C         3.0401582979        1.2608104857       -2.3363709424
  O         3.2000326702        0.9537054825       -3.5066709849
  C         3.5194437554        2.0500757009       -0.2371080687
  O         4.1530950841        2.5260123837        0.6891764132
  C         5.4034592696        1.9939388120       -1.8918088219
      24
 i =        7, E =      -198.1322447549
  O        -1.2492548704        0.5728278675        0.0055102417
  O        -3.7189915132        0.9716923795        0.3157392438
  S        -2.5564956058        0.1097053765        0.4469349959
  H         1.3579778974        2.0096837189        0.5033026298
  H         0.7918548847        1.0841192576       -1.9872590489
  H         6.1029793616        1.9098525626       -1.0401369216
  H         5.7074173025        1.3058233180       -2.6964026125
  H         5.4232111106        3.0389992990       -2.2669775991
 Cl        -3.2365378016       -4.0828098858        0.4744843093
 Cl        -2.6584321545       -2.9091158942        3.4374589280
 Cl        -2.1193682127        0.4120536174        3.4580689279
 Cl        -3.1700300399       -1.7159342286       -1.9161031228
  C        -2.9363151170       -2.4377385210        0.7276172692
  C        -2.6721503266       -1.9020048913        2.0778749726
  C        -2.4482024608       -0.5676893689        2.1295769511
  C         2.0497056690        1.7869413193       -0.3171393706
  C         1.7676039670        1.3230049306       -1.5518690832
  C        -2.9156358728       -1.5166634260       -0.2633068231
  N         4.0591148545        1.6637602921       -1.4681282713
  C         3.0387623817        1.2681578208       -2.3371785259
  O         3.2017539216        0.9552437957       -3.5128308255
  C         3.5178184602        2.0542636638       -0.2403290391
  O         4.1567427556        2.5277082223        0.6942672955
  C         5.3955175228        1.9934851686       -1.8890122881
      24
 i =        8, E =      -198.1327245484
  O        -1.2465946867        0.5669046287        0.0060149638
  O        -3.7231180512        0.9640572663        0.3130219774
  S        -2.5584990411        0.0988427660        0.4497555722
  H         1.3587783858        2.0086439316        0.5082877202
  H         0.7906517335        1.0829311364       -1.9919663747
  H         6.0949519914        1.9009071943       -1.0371091962
  H         5.6928398773        1.3066587669       -2.6969262756
  H         5.4319561291        3.0378677262       -2.2631213145
 Cl        -3.2371721751       -4.0832582217        0.4747919059
 Cl        -2.6584226708       -2.9091824667        3.4373453550
 Cl        -2.1198377863        0.4204013157        3.4418234372
 Cl        -3.1668271076       -1.6992315229       -1.9108373800
  C        -2.9367285236       -2.4417828496        0.7246901146
  C        -2.6709458977       -1.9022730658        2.0825097726
  C        -2.4479177036       -0.5656022215        2.1223756341
  C         2.0502541698        1.7860561865       -0.3187453598
  C         1.7693354306        1.3246952050       -1.5515297704
  C        -2.9128653895       -1.5120908233       -0.2607129972
  N         4.0549083808        1.6729483353       -1.4689915998
  C         3.0414418983        1.2695157495       -2.3389448270
  O         3.1998988904        0.9599218297       -3.5105562891
  C         3.5198579186        2.0546646728       -0.2375731966
  O         4.1535672721        2.5277808466        0.6925747680
  C         5.3951358447        1.9960472244       -1.8883607464
      24
 i =        9, E =      -198.1331811187
  O        -1.2484242322        0.5602397378        0.0079337176
  O        -3.7258834936        0.9561714973        0.3097001932
  S        -2.5576466960        0.0973907221        0.4476917501
  H         1.3610676168        2.0048328970        0.5102564449
  H         0.7921882566        1.0814282796       -1.9945001038
  H         6.0851515650        1.8915232464       -1.0347571687
  H         5.6778829340        1.3098185615       -2.6976043152
  H         5.4440769929        3.0357120110       -2.2583597670
 Cl        -3.2382591386       -4.0856164674        0.4753480631
 Cl        -2.6584224290       -2.9104356434        3.4383712089
 Cl        -2.1207732063        0.4274449680        3.4225110719
 Cl        -3.1631290232       -1.6817245787       -1.9028797996
  C        -2.9359435691       -2.4436705705        0.7262390767
  C        -2.6705151891       -1.9040166174        2.0820013763
  C        -2.4481206532       -0.5648009107        2.1138656923
  C         2.0477382130        1.7882773665       -0.3161866450
  C         1.7665044935        1.3269219333       -1.5560371823
  C        -2.9095056002       -1.5085994269       -0.2564071696
  N         4.0532111415        1.6850527107       -1.4705892247
  C         3.0424460647        1.2714078443       -2.3331472149
  O         3.1976990113        0.9647143709       -3.5114740940
  C         3.5165138322        2.0506607580       -0.2390209624
  O         4.1517017038        2.5303605166        0.6945103179
  C         5.3956176141        1.9980252291       -1.8873089341
      24
 i =       10, E =      -198.1334120311
  O        -1.2481467456        0.5584401443        0.0083728879
  O        -3.7263608082        0.9531791530        0.3072868377
  S        -2.5588665858        0.1008921293        0.4448508359
  H         1.3619697342        2.0016854332        0.5108867914
  H         0.7934150905        1.0801871928       -1.9953711513
  H         6.0796397949        1.8864165997       -1.0324750870
  H         5.6713901884        1.3118960238       -2.6992241864
  H         5.4528676061        3.0361819329       -2.2557293157
 Cl        -3.2391155968       -4.0876146646        0.4756632026
 Cl        -2.6583368578       -2.9112512572        3.4394061851
 Cl        -2.1210890070        0.4318405862        3.4118202313
 Cl        -3.1611712823       -1.6721084450       -1.8992344471
  C        -2.9346633192       -2.4426275677        0.7290004274
  C        -2.6705685093       -1.9046037702        2.0783772981
  C        -2.4490308841       -0.5679894102        2.1089801573
  C         2.0446432969        1.7883272843       -0.3190007602
  C         1.7651079352        1.3304243138       -1.5547179100
  C        -2.9074305910       -1.5096720489       -0.2515652668
  N         4.0527913518        1.6930418316       -1.4717997148
  C         3.0407929017        1.2722254782       -2.3333472314
  O         3.1961113690        0.9682648365       -3.5084586991
  C         3.5145021115        2.0508952003       -0.2360456835
  O         4.1484514343        2.5302847313        0.6932429049
  C         5.3943889430        1.9976968771       -1.8859506478
      24
 i =       11, E =      -198.1336042680
  O        -1.2441212779        0.5619075932        0.0067477688
  O        -3.7303610612        0.9585025412        0.3031214956
  S        -2.5584909281        0.1019044081        0.4426606844
  H         1.3612823432        1.9974275001        0.5105498444
  H         0.7947710341        1.0787343547       -1.9949953941
  H         6.0752987335        1.8821030985       -1.0275532941
  H         5.6699452959        1.3133826214       -2.7029052736
  H         5.4634605687        3.0391470444       -2.2531255256
 Cl        -3.2398562889       -4.0882091225        0.4763600411
 Cl        -2.6580286773       -2.9105223265        3.4390578837
 Cl        -2.1209511203        0.4362468442        3.4029617541
 Cl        -3.1597381361       -1.6646705131       -1.8975891430
  C        -2.9334623129       -2.4452030486        0.7323750732
  C        -2.6708263954       -1.9078833305        2.0761453103
  C        -2.4503939545       -0.5706396961        2.1053329465
  C         2.0416432185        1.7888554537       -0.3202298259
  C         1.7628413095        1.3337822252       -1.5545271716
  C        -2.9054670475       -1.5114727103       -0.2486861504
  N         4.0468129148        1.7007884577       -1.4722003074
  C         3.0367709757        1.2775455789       -2.3308288146
  O         3.1944116754        0.9699462909       -3.5078158133
  C         3.5095047364        2.0532967303       -0.2372647772
  O         4.1455157618        2.5304189556        0.6956170262
  C         5.3914692981        1.9970756775       -1.8846527919
      24
 i =       12, E =      -198.1337311759
  O        -1.2432999136        0.5654294989        0.0057552089
  O        -3.7292615459        0.9619821666        0.2998171147
  S        -2.5591750911        0.1051880420        0.4403050934
  H         1.3592059116        1.9942081621        0.5106351765
  H         0.7946519661        1.0774673358       -1.9946373574
  H         6.0714075793        1.8793161080       -1.0232546291
  H         5.6703620513        1.3147479742       -2.7047556745
  H         5.4706062920        3.0403638256       -2.2504534370
 Cl        -3.2404454404       -4.0886263004        0.4770297280
 Cl        -2.6576556692       -2.9095761140        3.4385717632
 Cl        -2.1207128890        0.4390627268        3.3972634217
 Cl        -3.1589472578       -1.6606623251       -1.8970614357
  C        -2.9330417683       -2.4486880064        0.7317523584
  C        -2.6705647294       -1.9099176882        2.0776387163
  C        -2.4513345706       -0.5708495572        2.1036001734
  C         2.0398199309        1.7902511796       -0.3182637990
  C         1.7603735877        1.3353737181       -1.5564655625
  C        -2.9041692358       -1.5124316976       -0.2485825448
  N         4.0418992476        1.7069674323       -1.4732801258
  C         3.0333170615        1.2822461346       -2.3332243212
  O         3.1923143241        0.9711871606       -3.5048489831
  C         3.5067708857        2.0581532850       -0.2360309455
  O         4.1417796704        2.5290841782        0.6957975184
  C         5.3901800009        1.9978198233       -1.8841964825
      24
 i =       13, E =      -198.1339103893
  O        -1.2463078175        0.5716076607        0.0047338475
  O        -3.7244341923        0.9674981246        0.2942753598
  S        -2.5584424928        0.1100254140        0.4366286623
  H         1.3526266954        1.9895842169        0.5127508264
  H         0.7910722126        1.0748843643       -1.9947786949
  H         6.0632831273        1.8754841892       -1.0163097515
  H         5.6719942945        1.3177035974       -2.7050604753
  H         5.4800106262        3.0408584015       -2.2453916471
 Cl        -3.2417473786       -4.0911408764        0.4778544392
 Cl        -2.6567886225       -2.9087883794        3.4393125808
 Cl        -2.1199877172        0.4434640469        3.3901906419
 Cl        -3.1581819033       -1.6565131024       -1.8979395009
  C        -2.9321784702       -2.4517893279        0.7278199645
  C        -2.6696677220       -1.9096063746        2.0799534267
  C        -2.4531448627       -0.5703814374        2.1010789361
  C         2.0364795265        1.7916009756       -0.3185476467
  C         1.7576735841        1.3393681620       -1.5557023702
  C        -2.9022813278       -1.5132356352       -0.2497265937
  N         4.0362896763        1.7184869913       -1.4769222840
  C         3.0265615768        1.2923518711       -2.3336457131
  O         3.1888101331        0.9711292658       -3.5059177954
  C         3.4995771149        2.0657132856       -0.2379193526
  O         4.1388881032        2.5286158709        0.6994912039
  C         5.3893418262        1.9998365225       -1.8832515985
      24
 i =       14, E =      -198.1340133445
  O        -1.2459282171        0.5726017019        0.0040505651
  O        -3.7250749966        0.9681520394        0.2941094116
  S        -2.5586070700        0.1066777774        0.4380383936
  H         1.3516452072        1.9895275190        0.5127016373
  H         0.7902748038        1.0749830290       -1.9944937975
  H         6.0618706771        1.8757216024       -1.0160244853
  H         5.6720493302        1.3180567765       -2.7033938263
  H         5.4790833566        3.0409755505       -2.2453316666
 Cl        -3.2419540626       -4.0921117089        0.4775968158
 Cl        -2.6565807800       -2.9091836166        3.4403103095
 Cl        -2.1197316403        0.4438279197        3.3913345375
 Cl        -3.1584641318       -1.6575655366       -1.8992354767
  C        -2.9315758111       -2.4493503852        0.7289159320
  C        -2.6699426453       -1.9084911861        2.0770227269
  C        -2.4532230259       -0.5695246826        2.1008094588
  C         2.0347531072        1.7922573798       -0.3177158919
  C         1.7557727520        1.3394339027       -1.5559124266
  C        -2.9022426648       -1.5122135113       -0.2505423853
  N         4.0368525206        1.7200119962       -1.4777653732
  C         3.0277274532        1.2921952115       -2.3361509511
  O         3.1876756617        0.9714374676       -3.5051767916
  C         3.5013908289        2.0666517243       -0.2371616058
  O         4.1386086214        2.5282672975        0.6980586054
  C         5.3896586250        1.9995500608       -1.8824776559
      24
 i =       15, E =      -198.1340822013
  O        -1.2473095064        0.5734792626        0.0035797024
  O        -3.7241434409        0.9674594879        0.2941630491
  S        -2.5588382070        0.1051551294        0.4386062393
  H         1.3489587573        1.9895007787        0.5132777398
  H         0.7877930073        1.0749548153       -1.9942383186
  H         6.0593706551        1.8760677621       -1.0146106605
  H         5.6724641554        1.3184019588       -2.7005524983
  H         5.4776476654        3.0409759725       -2.2450372585
 Cl        -3.2420800112       -4.0924678944        0.4773869712
 Cl        -2.6561638203       -2.9089076109        3.4408206884
 Cl        -2.1193335858        0.4442887418        3.3929456653
 Cl        -3.1589189229       -1.6594941365       -1.9012944434
  C        -2.9310461175       -2.4469386804        0.7288148674
  C        -2.6701525959       -1.9070505550        2.0746979311
  C        -2.4532697911       -0.5677689633        2.1009817092
  C         2.0328373336        1.7931092545       -0.3181848287
  C         1.7542314879        1.3403551023       -1.5553036234
  C        -2.9022691655       -1.5111401480       -0.2523778455
  N         4.0368965777        1.7228092553       -1.4794105435
  C         3.0278414603        1.2936365435       -2.3354862963
  O         3.1861809356        0.9708738101       -3.5081088835
  C         3.5009889109        2.0668483581       -0.2393794523
  O         4.1403981110        2.5291522970        0.6984689209
  C         5.3898811959        2.0000594634       -1.8813961676
      24
 i =       16, E =      -198.1342128951
  O        -1.2522773101        0.5747260287        0.0029469865
  O        -3.7213988831        0.9645576682        0.2947137740
  S        -2.5586351632        0.1065841878        0.4374906590
  H         1.3418343447        1.9894405031        0.5143700594
  H         0.7811815842        1.0750900646       -1.9933343830
  H         6.0533433228        1.8771120156       -1.0088801867
  H         5.6741341159        1.3184310600       -2.6940108657
  H         5.4743686924        3.0411000192       -2.2442493699
 Cl        -3.2418286262       -4.0903107668        0.4773112108
 Cl        -2.6550349431       -2.9061768842        3.4393721807
 Cl        -2.1184330587        0.4450544083        3.3965244465
 Cl        -3.1599995341       -1.6646398824       -1.9060168583
  C        -2.9308259441       -2.4446052255        0.7247327601
  C        -2.6700225572       -1.9036682388        2.0744134483
  C        -2.4533476627       -0.5639678305        2.1022523206
  C         2.0296381718        1.7961290872       -0.3183635593
  C         1.7511723277        1.3425049169       -1.5558487141
  C        -2.9024980454       -1.5098967351       -0.2573066956
  N         4.0344447096        1.7293091946       -1.4833774735
  C         3.0259816481        1.2960078360       -2.3394846157
  O         3.1816556326        0.9711764462       -3.5096495516
  C         3.5004880128        2.0700926795       -0.2401680463
  O         4.1420600340        2.5291894098        0.6951207578
  C         5.3897087321        2.0030463760       -1.8793411595
      24
 i =       17, E =      -198.1343428209
  O        -1.2516084592        0.5779122574        0.0001521460
  O        -3.7249778680        0.9658206729        0.2947408749
  S        -2.5590151452        0.1052899376        0.4370105097
  H         1.3354050025        1.9891059532        0.5132463573
  H         0.7753749384        1.0761223334       -1.9911332175
  H         6.0469877463        1.8790282539       -1.0000429351
  H         5.6768571183        1.3175526802       -2.6884277515
  H         5.4723585781        3.0433521098       -2.2440616311
 Cl        -3.2412121854       -4.0860163146        0.4773405261
 Cl        -2.6537116078       -2.9018861105        3.4359995406
 Cl        -2.1175141881        0.4458130637        3.3999799743
 Cl        -3.1610779561       -1.6703445062       -1.9107919447
  C        -2.9308319606       -2.4432295757        0.7204433251
  C        -2.6696737416       -1.8996816737        2.0749611009
  C        -2.4536040523       -0.5618873837        2.1029509648
  C         2.0266511911        1.8002376883       -0.3172688807
  C         1.7470244955        1.3447156616       -1.5585455460
  C        -2.9025542119       -1.5096558794       -0.2618272035
  N         4.0283782602        1.7347457387       -1.4867377424
  C         3.0203201167        1.2998838081       -2.3417865748
  O         3.1768977813        0.9716030468       -3.5114937762
  C         3.4963577979        2.0739473762       -0.2425352403
  O         4.1432518718        2.5292568693        0.6923345939
  C         5.3873698203        2.0061225042       -1.8768204161
      24
 i =       18, E =      -198.1344569941
  O        -1.2503033484        0.5799658047       -0.0020337830
  O        -3.7280829264        0.9665008397        0.2948823254
  S        -2.5606568443        0.1086355108        0.4343234403
  H         1.3310420593        1.9888607159        0.5110261561
  H         0.7708979862        1.0775829738       -1.9886379140
  H         6.0402931533        1.8819248222       -0.9916994923
  H         5.6793101262        1.3170548240       -2.6840893919
  H         5.4722123121        3.0465596772       -2.2442313269
 Cl        -3.2407935474       -4.0827939226        0.4771075340
 Cl        -2.6524573847       -2.8982879850        3.4332689818
 Cl        -2.1169714910        0.4460182765        3.4016334481
 Cl        -3.1617904450       -1.6751042478       -1.9141178421
  C        -2.9301445990       -2.4402482511        0.7205084913
  C        -2.6700702661       -1.8981826062        2.0715543784
  C        -2.4534187533       -0.5595069556        2.1031712180
  C         2.0223499226        1.8023843468       -0.3212415943
  C         1.7430192362        1.3489043636       -1.5565638236
  C        -2.9023992678       -1.5101614144       -0.2652252862
  N         4.0222653065        1.7381358725       -1.4886693338
  C         3.0132724133        1.3038331000       -2.3438038691
  O         3.1726170716        0.9723834510       -3.5124105185
  C         3.4913975516        2.0782226212       -0.2442207579
  O         4.1420977540        2.5288857650        0.6899581272
  C         5.3838225464        2.0074220247       -1.8736938398
      24
 i =       19, E =      -198.1345206899
  O        -1.2509629747        0.5802696170       -0.0025443338
  O        -3.7298555039        0.9671773945        0.2946665855
  S        -2.5601669129        0.1123559064        0.4315545953
  H         1.3297874163        1.9886937248        0.5087297486
  H         0.7690239546        1.0788678343       -1.9866239687
  H         6.0354077295        1.8843845066       -0.9876064790
  H         5.6802028985        1.3174657035       -2.6813526693
  H         5.4729355389        3.0474428765       -2.2438934565
 Cl        -3.2406636450       -4.0816404562        0.4768668085
 Cl        -2.6517024753       -2.8967542520        3.4321570449
 Cl        -2.1168603062        0.4457368740        3.4015632049
 Cl        -3.1619835284       -1.6776758978       -1.9150816983
  C        -2.9296515496       -2.4380713848        0.7211481478
  C        -2.6701872713       -1.8967290155        2.0687440403
  C        -2.4533381727       -0.5583054628        2.1019066813