      24
 i =        1, E =         0.1471122097
  O         2.3674683946       -0.0029050635       -2.1499417766
  O         3.4285927575       -0.0057010348        0.2218625024
  S         2.1323998068        0.0068558447       -0.6234113837
  H         0.0383768191       -1.3165738338       -2.2621169534
  H         0.0381650707        1.3163837614       -2.2618854449
  H        -4.3230762643       -0.8929392983        0.1676597606
  H        -4.3231310363        0.8926004383        0.1675830595
  H        -4.5803200315       -0.0002449138       -1.3553125796
 Cl        -0.3879518655        1.6115707641        2.2903274120
 Cl        -0.3876707572       -1.6114432330        2.2899504417
 Cl         1.0944250040       -2.8869456341       -0.2232517958
 Cl         1.0921301715        2.8878291507       -0.2229475537
  C         0.3338495722        0.7004789463        1.1028890596
  C         0.3361122100       -0.6987640354        1.1042056021
  C         0.9210061850       -1.2545399549       -0.0239632982
  C        -0.4998914352       -0.7062851454       -1.5306228487
  C        -0.4996376901        0.7072935666       -1.5284807385
  C         0.9248773156        1.2540298628       -0.0236174861
  N        -2.5823742007       -0.0001507413       -0.5973768254
  C        -1.8383442260        1.1800754478       -1.0164269809
  O        -2.2714896870        2.3004606604       -0.9357441955
  C        -1.8385247911       -1.1799839254       -1.0160212498
  O        -2.2708513499       -2.3007780033       -0.9355837437
  C        -4.0324549722       -0.0002176261       -0.4023159835
      24
 i =        2, E =         0.0716734593
  O         2.3713238623       -0.0026924968       -2.2290529201
  O         3.4890276594       -0.0064923130        0.2726375120
  S         2.1299561925        0.0052882273       -0.6246085229
  H         0.0373989274       -1.3165431192       -2.2643143277
  H         0.0370586999        1.3163867231       -2.2637761191
  H        -4.3232830240       -0.8918981131        0.1672825902
  H        -4.3233396881        0.8914938393        0.1671783908
  H        -4.5809202007       -0.0002837254       -1.3547173274
 Cl        -0.3891666749        1.6140751476        2.2960619877
 Cl        -0.3887955723       -1.6136987590        2.2960255097
 Cl         1.0991194479       -2.8919345357       -0.2255373758
 Cl         1.0965838435        2.8931339383       -0.2252816019
  C         0.3316532782        0.7004857195        1.1088816070
  C         0.3325185691       -0.6994756458        1.1103322807
  C         0.8818949973       -1.2740214484       -0.0262937171
  C        -0.4911561953       -0.7113702242       -1.5192141674
  C        -0.4903665890        0.7121291859       -1.5183545605
  C         0.8840440573        1.2759651125       -0.0249933070
  N        -2.5802390040       -0.0000141333       -0.5953531004
  C        -1.8368930127        1.1743552899       -1.0184233820
  O        -2.2738315074        2.3068623343       -0.9356617527
  C        -1.8366410094       -1.1743621280       -1.0186334315
  O        -2.2730066806       -2.3070881052       -0.9353849240
  C        -4.0312553767       -0.0001947707       -0.4033423406
      24
 i =        3, E =        -0.0017148430
  O         2.3877973610       -0.0027097528       -2.2687777014
  O         3.5249401904       -0.0063160892        0.2910026495
  S         2.1315599880        0.0034739645       -0.6387247288
  H         0.0401223178       -1.3166822560       -2.2590533870
  H         0.0402460897        1.3171529948       -2.2590554482
  H        -4.3233635362       -0.8907564411        0.1670613401
  H        -4.3234352327        0.8904076918        0.1669927428
  H        -4.5817479630       -0.0002720408       -1.3543044230
 Cl        -0.3936982269        1.6162204613        2.3041370905
 Cl        -0.3934033178       -1.6159511665        2.3045211613
 Cl         1.1021717880       -2.9020339185       -0.2300422600
 Cl         1.0998704322        2.9045161517       -0.2296718785
  C         0.3291785975        0.7159940469        1.1090556911
  C         0.3294808976       -0.7157648787        1.1088860723
  C         0.8803597836       -1.2884232717        0.0067607379
  C        -0.5134814657       -0.6754637623       -1.5436762314
  C        -0.5137105525        0.6753580123       -1.5425297616
  C         0.8805581455        1.2915977956        0.0073546851
  N        -2.5802763420       -0.0005738465       -0.5923804016
  C        -1.8440518951        1.1963269329       -1.0160954442
  O        -2.2666507835        2.2897682698       -0.9380750053
  C        -1.8437319289       -1.1952275000       -1.0161415766
  O        -2.2662309256       -2.2904379418       -0.9378242083
  C        -4.0308184213       -0.0000974556       -0.4039627147
      24
 i =        4, E =        -0.0116914249
  O         2.3939669270       -0.0023417784       -2.2723593077
  O         3.5305425509       -0.0059013107        0.2861333375
  S         2.1272765572        0.0026344845       -0.6327623757
  H         0.0396916866       -1.3151842603       -2.2567845569
  H         0.0397035276        1.3154993003       -2.2566182649
  H        -4.3235055190       -0.8905157300        0.1669333760
  H        -4.3235674453        0.8902171883        0.1668649674
  H        -4.5819975990       -0.0002559660       -1.3543636175
 Cl        -0.3957309157        1.6167579864        2.3061765872
 Cl        -0.3954077402       -1.6164525946        2.3065501183
 Cl         1.1027576483       -2.9045339055       -0.2303212828
 Cl         1.1005288705        2.9070536456       -0.2299960695
  C         0.3270489453        0.7115174840        1.1149196662
  C         0.3271126090       -0.7110708797        1.1149878230
  C         0.8865010732       -1.2907866736        0.0049549456
  C        -0.5189595616       -0.6907917973       -1.5501492506
  C        -0.5190062840        0.6909235042       -1.5494402474
  C         0.8865455651        1.2936669779        0.0059493884
  N        -2.5808265604       -0.0003188777       -0.5906912664
  C        -1.8370995978        1.1731568769       -1.0184198779
  O        -2.2735694379        2.3095270438       -0.9367567446
  C        -1.8371775452       -1.1733353281       -1.0185093028
  O        -2.2727411073       -2.3092140168       -0.9365498570
  C        -4.0304016474       -0.0001453733       -0.4042911882
      24
 i =        5, E =         0.0005883275
  O         2.3937510625       -0.0023527205       -2.2761473020
  O         3.5302066791       -0.0059504414        0.2876025412
  S         2.1421143549        0.0026561543       -0.6388216080
  H         0.0402685148       -1.3151822561       -2.2555825522
  H         0.0402212423        1.3154357067       -2.2553038639
  H        -4.3235835428       -0.8902887458        0.1668607763
  H        -4.3236426180        0.8899876191        0.1667933375
  H        -4.5821859582       -0.0002578570       -1.3544018564
 Cl        -0.3977478502        1.6174390669        2.3096819521
 Cl        -0.3973636929       -1.6171204336        2.3099658686
 Cl         1.1037294283       -2.9072497796       -0.2314849693
 Cl         1.1014774631        2.9100394980       -0.2311256808
  C         0.3256203233        0.7112896969        1.1166639572
  C         0.3257218879       -0.7104976534        1.1166505181
  C         0.8874563868       -1.2929546052        0.0097514089
  C        -0.5222779630       -0.6957314568       -1.5562881126
  C        -0.5222278299        0.6959686399       -1.5558241754
  C         0.8875070576        1.2952344433        0.0107565161
  N        -2.5807021840       -0.0002339006       -0.5884617981
  C        -1.8438284811        1.1838417729       -1.0182946480
  O        -2.2694615665        2.3008847512       -0.9375157387
  C        -1.8435635204       -1.1834980070       -1.0184931766
  O        -2.2688683121       -2.3011829589       -0.9372723366
  C        -4.0309358814       -0.0001705332       -0.4042520575
      24
 i =        6, E =        -0.0001091088
  O         2.3978562634       -0.0024197030       -2.2803556215
  O         3.5348120272       -0.0059293143        0.2865899246
  S         2.1470093818        0.0025657882       -0.6388103506
  H         0.0407074587       -1.3158360350       -2.2566414525
  H         0.0406318363        1.3160845923       -2.2563232743
  H        -4.3237652498       -0.8901180434        0.1667772928
  H        -4.3238240252        0.8898111379        0.1667182949
  H        -4.5823157791       -0.0002668625       -1.3544804662
 Cl        -0.3995929096        1.6180488555        2.3131272073
 Cl        -0.3991543286       -1.6177025345        2.3133116934
 Cl         1.1047398312       -2.9097997058       -0.2317967204
 Cl         1.1024153010        2.9125602046       -0.2313792127
  C         0.3235475235        0.7068521093        1.1214282391
  C         0.3237765322       -0.7059400994        1.1213232982
  C         0.8841659624       -1.2925699478        0.0040211102
  C        -0.5221270918       -0.6977609816       -1.5538988999
  C        -0.5220746979        0.6980954769       -1.5534642760
  C         0.8843606859        1.2948416374        0.0049690004
  N        -2.5805258534       -0.0001751921       -0.5868054800
  C        -1.8417355582        1.1747089446       -1.0206045901
  O        -2.2727039966        2.3093956691       -0.9367545103
  C        -1.8416997851       -1.1748825129       -1.0207409048
  O        -2.2719330480       -2.3092874014       -0.9365580834
  C        -4.0308854805       -0.0001700822       -0.4041952182
      24
 i =        7, E =         0.0001631093
  O         2.3972515548       -0.0022631639       -2.2849447236
  O         3.5368872787       -0.0058173789        0.2894282330
  S         2.1572920573        0.0022145035       -0.6437157977
  H         0.0414356797       -1.3163375499       -2.2563216667
  H         0.0413833691        1.3166392676       -2.2560191078
  H        -4.3239005350       -0.8900058913        0.1666886639
  H        -4.3239612057        0.8896955839        0.1666253906
  H        -4.5824170726       -0.0002644153       -1.3546221383
 Cl        -0.4012247052        1.6184202108        2.3163809099
 Cl        -0.4007211121       -1.6180151186        2.3164918484
 Cl         1.1055969139       -2.9116403791       -0.2324288592
 Cl         1.1032788430        2.9143058957       -0.2320114603
  C         0.3236920760        0.7105991823        1.1204479448
  C         0.3238135138       -0.7096562033        1.1203093795
  C         0.8827072689       -1.2926156280        0.0088092415
  C        -0.5241840279       -0.6957962495       -1.5571768782
  C        -0.5242629822        0.6960384270       -1.5568325388
  C         0.8828459620        1.2949687320        0.0097872747
  N        -2.5804645907       -0.0000853681       -0.5847283783
  C        -1.8465391222        1.1833535545       -1.0209725633
  O        -2.2699038109        2.3026823484       -0.9373108295
  C        -1.8462439252       -1.1832005326       -1.0211829297
  O        -2.2693403953       -2.3029362574       -0.9370713089
  C        -4.0313360322       -0.0001775698       -0.4041727062
      24
 i =        8, E =        -0.0002961502
  O         2.3940276370       -0.0020380890       -2.2898409895
  O         3.5385534585       -0.0056264243        0.2937727837
  S         2.1672471566        0.0017879833       -0.6478605186
  H         0.0421600583       -1.3167320808       -2.2560606749
  H         0.0420981805        1.3170256137       -2.2557417490
  H        -4.3241360463       -0.8899316390        0.1665973513
  H        -4.3241960832        0.8896263708        0.1665277514
  H        -4.5824610289       -0.0002603265       -1.3547649872
 Cl        -0.4025256188        1.6184615315        2.3194213528
 Cl        -0.4019928245       -1.6180187661        2.3195079293
 Cl         1.1062766559       -2.9128715620       -0.2331048587
 Cl         1.1040214701        2.9154889269       -0.2326809779
  C         0.3229482580        0.7112348365        1.1208955330
  C         0.3229807362       -0.7102939435        1.1207537699
  C         0.8827094426       -1.2936929621        0.0110355425
  C        -0.5265140692       -0.6951798610       -1.5595425200
  C        -0.5265967519        0.6954694808       -1.5593100967
  C         0.8827754936        1.2960373805        0.0119534477
  N        -2.5806817604       -0.0000768721       -0.5829877099
  C        -1.8446067405        1.1755849792       -1.0226085712
  O        -2.2726138705        2.3098207221       -0.9368501048
  C        -1.8444545064       -1.1757388357       -1.0227683328
  O        -2.2719481716       -2.3097975850       -0.9366344406
  C        -4.0313860751       -0.0001728784       -0.4042519296
      24
 i =        9, E =         0.0001210168
  O         2.3911030936       -0.0018299275       -2.2946090898
  O         3.5405167464       -0.0054503825        0.2979886248
  S         2.1744813984        0.0014384700       -0.6509875628
  H         0.0427920224       -1.3171070490       -2.2556087535
  H         0.0427366526        1.3174079203       -2.2552964812
  H        -4.3243438697       -0.8898825705        0.1665063402
  H        -4.3244036738        0.8895836452        0.1664311827
  H        -4.5824411443       -0.0002560439       -1.3549213188
 Cl        -0.4036629744        1.6183064324        2.3220898467
 Cl        -0.4031115451       -1.6178383588        2.3221620425
 Cl         1.1068428565       -2.9138063017       -0.2337050766
 Cl         1.1046577343        2.9163781915       -0.2332863692
  C         0.3223739743        0.7119519629        1.1211450018
  C         0.3223522805       -0.7110028053        1.1209943355
  C         0.8836328970       -1.2946442781        0.0133920920
  C        -0.5281719016       -0.6943786840       -1.5625979492
  C        -0.5282778117        0.6946522368       -1.5624247090
  C         0.8836591287        1.2969389096        0.0142559309
  N        -2.5806940919       -0.0001109941       -0.5814478468
  C        -1.8482188411        1.1827031462       -1.0228283764
  O        -2.2704847994        2.3041785824       -0.9374169547
  C        -1.8479599314       -1.1825284674       -1.0229757172
  O        -2.2699359289       -2.3044302165       -0.9371865493
  C        -4.0317572716       -0.0001674177       -0.4042156428
      24
 i =       10, E =        -0.0003088499
  O         2.3886688837       -0.0016382385       -2.2991570560
  O         3.5426627973       -0.0052833360        0.3018315120
  S         2.1800187531        0.0011352093       -0.6533897910
  H         0.0435102126       -1.3175035474       -2.2551999842
  H         0.0434575142        1.3178073545       -2.2548916449
  H        -4.3246388675       -0.8898459878        0.1664511689
  H        -4.3246916711        0.8895504481        0.1663588151
  H        -4.5824754152       -0.0002424096       -1.3550717955
 Cl        -0.4047623376        1.6180214317        2.3245970930
 Cl        -0.4042042978       -1.6175378981        2.3246706188
 Cl         1.1073778780       -2.9146395128       -0.2342674797
 Cl         1.1052589715        2.9171535392       -0.2338462340
  C         0.3218957904        0.7125273525        1.1213977104
  C         0.3218498187       -0.7115493216        1.1212043599
  C         0.8851418981       -1.2953596112        0.0157086875
  C        -0.5308329138       -0.6933864010       -1.5654422798
  C        -0.5309400915        0.6936892696       -1.5653261864
  C         0.8851465786        1.2975829990        0.0164963905
  N        -2.5809001805       -0.0000795240       -0.5798733357
  C        -1.8467866787        1.1766193417       -1.0242180301
  O        -2.2726536064        2.3097471979       -0.9371022741
  C        -1.8466509895       -1.1767514369       -1.0243169515
  O        -2.2720058898       -2.3097285308       -0.9368967451
  C        -4.0317611570       -0.0001823879       -0.4042595680
      24
 i =       11, E =        -0.0000254509
  O         2.3883653400       -0.0015132242       -2.3028051998
  O         3.5452677852       -0.0051620949        0.3040618217
  S         2.1816296824        0.0009420778       -0.6542941084
  H         0.0440765223       -1.3178428624       -2.2545993058
  H         0.0440320872        1.3181570630       -2.2543019146
  H        -4.3249183567       -0.8898215908        0.1664217572
  H        -4.3249706035        0.8895257672        0.1663249838
  H        -4.5824979627       -0.0002408726       -1.3551920797
 Cl        -0.4057934256        1.6176779070        2.3266072762
 Cl        -0.4052159832       -1.6171724538        2.3266510517
 Cl         1.1077822902       -2.9152285362       -0.2346628740
 Cl         1.1057085577        2.9176927305       -0.2342461985
  C         0.3215739934        0.7132382813        1.1217043367
  C         0.3215097746       -0.7122268725        1.1215380894
  C         0.8876199112       -1.2958803048        0.0179609787
  C        -0.5332798406       -0.6918358961       -1.5689511210
  C        -0.5334007977        0.6921194700       -1.5688486602
  C         0.8876350451        1.2980232673        0.0187302177
  N        -2.5809637873       -0.0001092011       -0.5785637985
  C        -1.8495721407        1.1820998343       -1.0244391253
  O        -2.2711225563        2.3054475814       -0.9375589181
  C        -1.8493296510       -1.1819289846       -1.0245294471
  O        -2.2705816068       -2.3056817321       -0.9373403370
  C        -4.0318692771       -0.0001733537       -0.4042104251
      24
 i =       12, E =        -0.0004047386
  O         2.3886319496       -0.0014147379       -2.3056949663
  O         3.5476277323       -0.0050567578        0.3054150785
  S         2.1829625478        0.0007954974       -0.6548349046
  H         0.0445866883       -1.3181305614       -2.2540936693
  H         0.0445494075        1.3184538819       -2.2538035360
  H        -4.3252394815       -0.8897872109        0.1663978347
  H        -4.3252910922        0.8894935216        0.1662995135
  H        -4.5825237117       -0.0002397705       -1.3552784708
 Cl        -0.4068071098        1.6172602714        2.3285057869
 Cl        -0.4061981089       -1.6167114025        2.3284936715
 Cl         1.1082127704       -2.9157619495       -0.2350154590
 Cl         1.1061699965        2.9181544818       -0.2345894565
  C         0.3213081934        0.7133781002        1.1222040821
  C         0.3212153092       -0.7123660248        1.1220907289
  C         0.8897959699       -1.2960921545        0.0196799664
  C        -0.5358807814       -0.6915425050       -1.5718564864
  C        -0.5360075308        0.6918493596       -1.5717777921
  C         0.8898467213        1.2981824063        0.0204027512
  N        -2.5811009781       -0.0000855980       -0.5771773748
  C        -1.8487652010        1.1776921510       -1.0255840549
  O        -2.2727617629        2.3095172751       -0.9373460730
  C        -1.8486283365       -1.1777993118       -1.0256363676
  O        -2.2721312765       -2.3095081141       -0.9371517619
  C        -4.0318869149       -0.0001748479       -0.4041920406
      24
 i =       13, E =         0.0000715736
  O         2.3903682569       -0.0013262933       -2.3071672615
  O         3.5500344448       -0.0049129041        0.3048166104
  S         2.1825410457        0.0006232101       -0.6542681674
  H         0.0448729851       -1.3183940788       -2.2537804358
  H         0.0448414111        1.3187279463       -2.2534938339
  H        -4.3255028441       -0.8897662214        0.1663838848
  H        -4.3255537421        0.8894763783        0.1662836768
  H        -4.5825046467       -0.0002365098       -1.3553298914
 Cl        -0.4076666747        1.6168675556        2.3299076934
 Cl        -0.4070408702       -1.6162939222        2.3298767430
 Cl         1.1085678452       -2.9161216355       -0.2351779761
 Cl         1.1065715439        2.9184533050       -0.2347510328
  C         0.3210638227        0.7128945641        1.1231270318
  C         0.3209292716       -0.7119058644        1.1230236522
  C         0.8913092937       -1.2960000436        0.0201657147
  C        -0.5372126526       -0.6918670496       -1.5738691555
  C        -0.5373452716        0.6921631687       -1.5738274321
  C         0.8913654973        1.2980578310        0.0208532226
  N        -2.5811205100       -0.0000786246       -0.5761745590
  C        -1.8509031193        1.1812572228       -1.0259450324
  O        -2.2718430731        2.3067561916       -0.9376391168
  C        -1.8506842173       -1.1811798172       -1.0260053175
  O        -2.2712880109       -2.3069197954       -0.9374400519
  C        -4.0321147855       -0.0001686133       -0.4041119658
      24
 i =       14, E =         0.0000389936
  O         2.3923053868       -0.0012238871       -2.3084567632
  O         3.5525794277       -0.0047873006        0.3040104423
  S         2.1829676881        0.0005155188       -0.6539050715
  H         0.0452207991       -1.3188076046       -2.2537437761
  H         0.0452013538        1.3191670882       -2.2534780681
  H        -4.3258585672       -0.8897370539        0.1663656982
  H        -4.3259109024        0.8894492781        0.1662641764
  H        -4.5824920178       -0.0002348483       -1.3554199030
 Cl        -0.4086380038        1.6163215013        2.3315724037
 Cl        -0.4080087930       -1.6157346726        2.3315325792
 Cl         1.1090441446       -2.9164852602       -0.2353048101
 Cl         1.1070978509        2.9187091168       -0.2348872726
  C         0.3208963812        0.7122887713        1.1242118470
  C         0.3207863176       -0.7112395943        1.1240521276
  C         0.8919169465       -1.2955155515        0.0200099219
  C        -0.5384205640       -0.6923430624       -1.5750653170
  C        -0.5385713278        0.6926127484       -1.5750365216
  C         0.8920300837        1.2974669847        0.0206838367
  N        -2.5811621951       -0.0000542964       -0.5746748138
  C        -1.8508751482        1.1785048630       -1.0271543877
  O        -2.2730359032        2.3094612822       -0.9375318589
  C        -1.8506514529       -1.1785347333       -1.0272066812
  O        -2.2724706729       -2.3095270456       -0.9373370190
  C        -4.0322658316       -0.0001662421       -0.4040437693
      24
 i =       15, E =         0.0000096339
  O         2.3927858561       -0.0013216847       -2.3093589400
  O         3.5537206173       -0.0048230067        0.3042278529
  S         2.1850808331        0.0006802984       -0.6548874539
  H         0.0454227489       -1.3191919857       -2.2537355948
  H         0.0453954883        1.3195585702       -2.2534628738
  H        -4.3261402735       -0.8897510246        0.1664289745
  H        -4.3261964747        0.8894566438        0.1663306235
  H        -4.5824659978       -0.0002369223       -1.3554091752
 Cl        -0.4093050117        1.6158155306        2.3328439724
 Cl        -0.4086668098       -1.6152329701        2.3327870310
 Cl         1.1094792670       -2.9166045133       -0.2354928056
 Cl         1.1075395398        2.9188180168       -0.2350535990
  C         0.3209602609        0.7125139513        1.1245287697
  C         0.3208739016       -0.7114329787        1.1243564302
  C         0.8922524983       -1.2952392504        0.0207042809
  C        -0.5389545330       -0.6924177816       -1.5759722718
  C        -0.5390967270        0.6927096104       -1.5759542249
  C         0.8923861792        1.2971290355        0.0213534834
  N        -2.5814749955       -0.0000733199       -0.5748855178
  C        -1.8524436379        1.1810208585       -1.0274477428
  O        -2.2725931770        2.3075512530       -0.9376726819
  C        -1.8522148253       -1.1809880925       -1.0274847289
  O        -2.2720377131       -2.3076685000       -0.9374883932
  C        -4.0326220140       -0.0001657377       -0.4037984148
      24
 i =       16, E =         0.0000008724
  O         2.3938918421       -0.0013141179       -2.3103000973
  O         3.5554153167       -0.0047857120        0.3040214025
  S         2.1867608511        0.0007106637       -0.6553766448
  H         0.0456931245       -1.3196220652       -2.2537683557
  H         0.0456720503        1.3200033488       -2.2535041903
  H        -4.3264875575       -0.8897553445        0.1664360527
  H        -4.3265468934        0.8894606743        0.1663398011
  H        -4.5824464983       -0.0002375981       -1.3554744918
 Cl        -0.4100599808        1.6151351818        2.3342688290
 Cl        -0.4094119810       -1.6145413717        2.3341887155
 Cl         1.1099341749       -2.9166082639       -0.2355957956
 Cl         1.1080185098        2.9187623204       -0.2351490612
  C         0.3209597014        0.7125013404        1.1251217578
  C         0.3208978740       -0.7113848562        1.1249447379
  C         0.8922740981       -1.2948829807        0.0208129140
  C        -0.5397508726       -0.6922639190       -1.5767570943
  C        -0.5399070049        0.6925599267       -1.5767310531
  C         0.8924611776        1.2966965048        0.0214312191
  N        -2.5815148300       -0.0000712723       -0.5734057710
  C        -1.8523894661        1.1788271571       -1.0285584632
  O        -2.2736519744        2.3096167494       -0.9376453368
  C        -1.8521811725       -1.1788417688       -1.0285739512
  O        -2.2730823143       -2.3096904420       -0.9374715913
  C        -4.0328631748       -0.0001681550       -0.4037965320
      24
 i =       17, E =         0.0000709893
  O         2.3949270015       -0.0012771350       -2.3109319331
  O         3.5568650080       -0.0047279632        0.3036595328
  S         2.1878337482        0.0006602073       -0.6555564112
  H         0.0457478151       -1.3199111605       -2.2538695239
  H         0.0457294198        1.3202971794       -2.2536068459
  H        -4.3267792972       -0.8897599307        0.1664492562
  H        -4.3268406339        0.8894652104        0.1663541180
  H        -4.5823914823       -0.0002382744       -1.3555349824
 Cl        -0.4105609456        1.6145880974        2.3353287897
 Cl        -0.4099079830       -1.6139834886        2.3352386930
 Cl         1.1102843440       -2.9165478047       -0.2356213555
 Cl         1.1083947722        2.9186405466       -0.2351730884
  C         0.3209147300        0.7122015293        1.1256934125
  C         0.3208543083       -0.7110794180        1.1255180398
  C         0.8918191564       -1.2944498259        0.0202562038
  C        -0.5395999566       -0.6927091572       -1.5768107119
  C        -0.5397539147        0.6930110484       -1.5768066808
  C         0.8920306417        1.2962513249        0.0208579094
  N        -2.5815710916       -0.0000609952       -0.5728162835
  C        -1.8536889603        1.1808943000       -1.0289022177
  O        -2.2733100071        2.3079603030       -0.9379286938
  C        -1.8534586995       -1.1808886841       -1.0289212279
  O        -2.2727552737       -2.3080615497       -0.9377561113
  C        -4.0330976997       -0.0001683595       -0.4036628878
      24
 i =       18, E =        -0.0000065095
  O         2.3961332655       -0.0012504426       -2.3115911562
  O         3.5584993218       -0.0046724494        0.3032563915
  S         2.1890337823        0.0006312575       -0.6559163007
  H         0.0459185205       -1.3202743875       -2.2538798500
  H         0.0459042449        1.3206659608       -2.2536179813
  H        -4.3271491055       -0.8897629826        0.1664578403
  H        -4.3272131280        0.8894672923        0.1663640543
  H        -4.5823618726       -0.0002393041       -1.3556166504
 Cl        -0.4111823737        1.6138342281        2.3365625796
 Cl        -0.4105254709       -1.6132205578        2.3364628289
 Cl         1.1107053107       -2.9164033575       -0.2356808743
 Cl         1.1088476325        2.9184380487       -0.2352261445
  C         0.3210347453        0.7123951562        1.1260289095
  C         0.3209708526       -0.7112604223        1.1258689995
  C         0.8916997616       -1.2940370401        0.0204561687
  C        -0.5402327698       -0.6925010900       -1.5774063439
  C        -0.5403826297        0.6928127291       -1.5774275007
  C         0.8919239315        1.2958052983        0.0210387202
  N        -2.5816019514       -0.0000595506       -0.5716379308
  C        -1.8536288293        1.1790170455       -1.0297936748
  O        -2.2742835915        2.3096510505       -0.9379997030
  C        -1.8533984616       -1.1790184132       -1.0298073794
  O        -2.2737258315       -2.3097446881       -0.9378337993
  C        -4.0333003538       -0.0001673811       -0.4036042031
      24
 i =       19, E =         0.0000616054
  O         2.3970902594       -0.0012298299       -2.3119915059
  O         3.5597382798       -0.0046287430        0.3028372938
  S         2.1899510272        0.0006121237       -0.6560887439
  H         0.0459528133       -1.3205128224       -2.2539035468
  H         0.0459398804        1.3209125714       -2.2536458294
  H        -4.3274419070       -0.8897650271        0.1664623718
  H        -4.3275082941        0.8894684722        0.1663690753
  H        -4.5823156624       -0.0002395014       -1.3556850849
 Cl        -0.4116035943        1.6132307164        2.3374591489
 Cl        -0.4109442843       -1.6126081562        2.3373521132
 Cl         1.1110271957       -2.9162352178       -0.2356941993
 Cl         1.1091937836        2.9182395288       -0.2352394121
  C         0.3210282161        0.7121746014        1.1265042076
  C         0.3209714503       -0.7110265216        1.1263426973
  C         0.8914054544       -1.2937683396        0.0201137988